 Gaussian 16, Revision A.03,
 Gaussian 16:  ES64L-G16RevA.03 25-Dec-2016

 -------------------------------------------------
 # opt freq wb97xd/6-311++g(d,p) geom=connectivity
 -------------------------------------------------

 ---------------
 Fiveseven-3.cdx
 ---------------
 Symbolic Z-matrix:
 Charge =  0 Multiplicity = 1

 SCF Done:  E(RwB97XD) =  -385.770689069     A.U. after   17 cycles
 SCF Done:  E(RwB97XD) =  -385.783066550     A.U. after   16 cycles
 SCF Done:  E(RwB97XD) =  -385.783422699     A.U. after   14 cycles
 SCF Done:  E(RwB97XD) =  -385.783441856     A.U. after   13 cycles
 Optimization completed.
    -- Stationary point found.
 Normal termination of Gaussian 16 at Fri Aug 19 09:33:00 2022.

 ----------------------------------------------------------------------
 #N Geom=AllCheck Guess=TCheck SCRF=Check GenChk RwB97XD/6-311++G(d,p)
 Freq
 ----------------------------------------------------------------------

 Structure from the checkpoint file:  "Azulene.chk"
 ---------------
 Fiveseven-3.cdx
 ---------------
 Charge =  0 Multiplicity = 1

                         Standard orientation:
 ---------------------------------------------------------------------
 Center     Atomic      Atomic             Coordinates (Angstroms)
 Number     Number       Type             X           Y           Z
 ---------------------------------------------------------------------
      1          6           0       -0.000000   -0.926933    0.000000
      2          6           0       -0.841122   -2.046761    0.000000
      3          6           0       -2.166873   -1.602508    0.000000
      4          6           0       -2.203777   -0.204286    0.000000
      5          6           0       -0.886621    0.271718   -0.000000
      6          6           0        1.386977   -0.951000    0.000000
      7          6           0        2.279691    0.116263   -0.000000
      8          6           0        2.002266    1.480208   -0.000000
      9          6           0       -0.502686    1.604880   -0.000000
     10          6           0        0.779076    2.145382   -0.000000
     11          1           0        0.833724    3.229581   -0.000000
     12          1           0       -1.320301    2.322702   -0.000000
     13          1           0       -3.090463    0.414391   -0.000000
     14          1           0       -3.037201   -2.246575    0.000000
     15          1           0       -0.509067   -3.075823    0.000000
     16          1           0        1.833238   -1.943391    0.000000
     17          1           0        3.332384   -0.149563    0.000000
     18          1           0        2.876107    2.126894   -0.000000
 ---------------------------------------------------------------------

 SCF Done:  E(RwB97XD) =  -385.783441856     A.U. after    1 cycles

 The electronic state is 1-A'.
 Alpha  occ. eigenvalues --  -10.31414 -10.31407 -10.31175 -10.30071 -10.30067
 Alpha  occ. eigenvalues --  -10.29951 -10.29922 -10.28549 -10.27224 -10.27218
 Alpha  occ. eigenvalues --   -0.98482  -0.93322  -0.89610  -0.84321  -0.80828
 Alpha  occ. eigenvalues --   -0.74915  -0.71867  -0.64942  -0.64480  -0.61109
 Alpha  occ. eigenvalues --   -0.58999  -0.54731  -0.54572  -0.49819  -0.48603
 Alpha  occ. eigenvalues --   -0.48221  -0.46256  -0.46091  -0.44524  -0.42418
 Alpha  occ. eigenvalues --   -0.41836  -0.39040  -0.30834  -0.26922
 Alpha virt. eigenvalues --   -0.01973   0.01229   0.03781   0.04652   0.04925
 Alpha virt. eigenvalues --    0.06246   0.06403   0.08341   0.08767   0.10602
 Alpha virt. eigenvalues --    0.11284   0.11954   0.12515   0.13223   0.13642

 Mulliken charges:
               1
     1  C    0.093595
     2  C   -0.234041
     3  C   -0.219394
     4  C   -0.234217
     5  C    0.093831
     6  C   -0.106551
     7  C   -0.291214
     8  C   -0.236941
     9  C   -0.107124
    10  C   -0.290625
    11  H    0.218913
    12  H    0.175563
    13  H    0.171933
    14  H    0.205524
    15  H    0.171884
    16  H    0.175634
    17  H    0.218933
    18  H    0.194296
 Sum of Mulliken charges =  -0.00000

 Dipole moment (field-independent basis, Debye):
    X=              1.0535    Y=              0.7778    Z=             -0.0000  Tot=              1.3095
 Quadrupole moment (field-independent basis, Debye-Ang):
   XX=            -51.3329   YY=            -50.9717   ZZ=            -64.7444
   XY=             -0.5897   XZ=              0.0000   YZ=              0.0000

  Exact polarizability: 166.597  30.223 148.010  -0.000  -0.000  62.434
 Approx polarizability: 202.757  35.893 180.659  -0.000  -0.000  74.514

                      1                      2                      3
                     A"                     A"                     A"
 Frequencies --    159.9268               169.8333               316.1842
 Red. masses --      3.8452                 3.8240                 3.1168
 Frc consts  --      0.0579                 0.0650                 0.1836
 IR Inten    --      0.0000                 2.2453                12.1469

                      4                      5                      6
                     A'                     A'                     A"
 Frequencies --    340.3498               413.0770               432.4612
 Red. masses --      4.4269                 6.9546                 3.0694
 Frc consts  --      0.3021                 0.6992                 0.3382
 IR Inten    --      0.8787                 1.9591                 0.0000

                      7                      8                      9
                     A'                     A"                     A"
 Frequencies --    491.3447               580.0525               615.7544
 Red. masses --      5.8136                 2.5338                 3.1868
 Frc consts  --      0.8269                 0.5023                 0.7119
 IR Inten    --      3.5468                11.6651                 0.8554

                     10                     11                     12
                     A'                     A'                     A"
 Frequencies --    689.8787               707.3040               725.3494
 Red. masses --      5.1670                 5.9592                 3.0759
 Frc consts  --      1.4489                 1.7565                 0.9535
 IR Inten    --      1.1233                 2.1816                 0.0000

                     13                     14                     15
                     A"                     A"                     A"
 Frequencies --    749.7464               792.6185               810.0688
 Red. masses --      1.1645                 1.3047                 1.3862
 Frc consts  --      0.3857                 0.4829                 0.5359
 IR Inten    --      2.4305               139.1045                 0.0485

                     16                     17                     18
                     A'                     A"                     A'
 Frequencies --    840.2786               889.7341               917.9056
 Red. masses --      5.1810                 1.4319                 5.7520
 Frc consts  --      2.1553                 0.6679                 2.8554
 IR Inten    --      8.5862                 0.0003                 3.2631

                     19                     20                     21
                     A"                     A'                     A'
 Frequencies --    960.8565               970.5348               974.8677
 Red. masses --      1.3685                 2.6796                 2.9974
 Frc consts  --      0.7444                 1.4871                 1.6784
 IR Inten    --      0.2501                15.9440                 3.3883

                     22                     23                     24
                     A"                     A"                     A"
 Frequencies --    991.7088              1012.2817              1029.3148
 Red. masses --      1.3971                 1.3735                 1.3184
 Frc consts  --      0.8095                 0.8292                 0.8230
 IR Inten    --      5.8993                 0.0005                 0.0930

                     25                     26                     27
                     A'                     A'                     A'
 Frequencies --   1074.9194              1091.1511              1184.5701
 Red. masses --      1.6261                 1.4648                 1.7322
 Frc consts  --      1.1070                 1.0275                 1.4321
 IR Inten    --      1.2341                 9.8449                 0.2758

                     28                     29                     30
                     A'                     A'                     A'
 Frequencies --   1233.4505              1259.5962              1315.9989
 Red. masses --      1.4161                 1.2680                 2.7767
 Frc consts  --      1.2694                 1.1853                 2.8333
 IR Inten    --      5.9729                 0.5760                 2.9370

                     31                     32                     33
                     A'                     A'                     A'
 Frequencies --   1330.3412              1334.2497              1436.3856
 Red. masses --      1.6744                 1.1919                 1.9401
 Frc consts  --      1.7460                 1.2501                 2.3584
 IR Inten    --      3.9887                 2.1014                 0.2801

                     34                     35                     36
                     A'                     A'                     A'
 Frequencies --   1444.7585              1500.3502              1506.2456
 Red. masses --      2.3623                 1.9785                 2.9049
 Frc consts  --      2.9053                 2.6240                 3.8831
 IR Inten    --    115.4157                10.3957                39.1635

                     37                     38                     39
                     A'                     A'                     A'
 Frequencies --   1553.0628              1604.8667              1670.8030
 Red. masses --      5.9742                 3.4432                 4.9061
 Frc consts  --      8.4900                 5.2250                 8.0692
 IR Inten    --      7.8162                 5.5759                 7.6593

                     40                     41                     42
                     A'                     A'                     A'
 Frequencies --   1677.6250              3153.3851              3156.5089
 Red. masses --      8.0347                 1.0842                 1.0869
 Frc consts  --     13.3232                 6.3518                 6.3807
 IR Inten    --     83.3811                 0.2362                10.4817

                     43                     44                     45
                     A'                     A'                     A'
 Frequencies --   3163.0212              3183.2468              3191.6473
 Red. masses --      1.0890                 1.0916                 1.0939
 Frc consts  --      6.4192                 6.5171                 6.5654
 IR Inten    --      6.7135                27.6664                17.8989

                     46                     47                     48
                     A'                     A'                     A'
 Frequencies --   3215.6150              3234.8527              3243.9618
 Red. masses --      1.0889                 1.0950                 1.1037
 Frc consts  --      6.6336                 6.7513                 6.8431
 IR Inten    --      6.9375                10.2653                 8.0276

 - Thermochemistry -
 -------------------
 Temperature   298.150 Kelvin.  Pressure   1.00000 Atm.
 Atom     1 has atomic number  6 and mass  12.00000

 Molecular mass:   128.06260 amu.
 Principal axes and moments of inertia in atomic units:
                           1         2         3
     Eigenvalues --   629.436621428.670452058.10707
           X            0.80410  -0.59449   0.00000
           Y            0.59449   0.80410   0.00000
           Z            0.00000  -0.00000   1.00000
 This molecule is an asymmetric top.
 Rotational symmetry number  1.
 Warning -- assumption of classical behavior for rotation
           may cause significant error
 Rotational temperatures (Kelvin)      0.13761     0.06063     0.04208
 Rotational constants (GHZ):           2.86723     1.26323     0.87689
 Zero-point vibrational energy     384850.9 (Joules/Mol)
                                   91.98157 (Kcal/Mol)
 Warning -- explicit consideration of   9 degrees of freedom as
           vibrations may cause significant error
 Vibrational temperatures:    230.10   244.35   454.92   489.69   594.33
          (Kelvin)            622.22   706.94   834.57   885.93   992.58
                             1017.65  1043.62  1078.72  1140.40  1165.51
                             1208.97  1280.13  1320.66  1382.46  1396.38
                             1402.62  1426.85  1456.45  1480.95  1546.57
                             1569.92  1704.33  1774.66  1812.28  1893.43
                             1914.06  1919.69  2066.64  2078.69  2158.67
                             2167.15  2234.51  2309.05  2403.91  2413.73
                             4537.02  4541.51  4550.88  4579.98  4592.07
                             4626.55  4654.23  4667.34

 Zero-point correction=                           0.146582 (Hartree/Particle)
 Thermal correction to Energy=                    0.153700
 Thermal correction to Enthalpy=                  0.154644
 Thermal correction to Gibbs Free Energy=         0.115045
 Sum of electronic and zero-point Energies=           -385.636860
 Sum of electronic and thermal Energies=              -385.629742
 Sum of electronic and thermal Enthalpies=            -385.628798
 Sum of electronic and thermal Free Energies=         -385.668397

                     E (Thermal)             CV                S
                      KCal/Mol        Cal/Mol-Kelvin    Cal/Mol-Kelvin
 Total                   96.448             29.637             83.343
 Electronic               0.000              0.000              0.000
 Translational            0.889              2.981             40.455
 Rotational               0.889              2.981             29.005
 Vibrational             94.671             23.675             13.882
 Vibration     1          0.622              1.891              2.551
 Vibration     2          0.625              1.880              2.437
 Vibration     3          0.703              1.643              1.330
 Vibration     4          0.720              1.595              1.211
 Vibration     5          0.777              1.442              0.916
 Vibration     6          0.793              1.400              0.851
 Vibration     7          0.847              1.269              0.680
 Vibration     8          0.937              1.074              0.485
 Vibration     9          0.975              0.999              0.423

                           ! Non-Optimized Parameters !
 Normal termination of Gaussian 16 at Fri Aug 19 09:35:19 2022.
