 Gaussian 16, Revision A.03,
 Gaussian 16:  ES64L-G16RevA.03 25-Dec-2016

 --------------------------------------------
 # opt wb97xd/6-311++g(d,p) geom=connectivity
 --------------------------------------------

 ---------------
 Fiveseven-3.cdx
 ---------------
 Symbolic Z-matrix:
 Charge =  0 Multiplicity = 1

 SCF Done:  E(RwB97XD) =  -1843.24583398     A.U. after   15 cycles
 SCF Done:  E(RwB97XD) =  -1843.24625103     A.U. after   10 cycles
 SCF Done:  E(RwB97XD) =  -1843.24625939     A.U. after    9 cycles
 Optimization completed.
    -- Stationary point found.

                         Standard orientation:
 ---------------------------------------------------------------------
 Center     Atomic      Atomic             Coordinates (Angstroms)
 Number     Number       Type             X           Y           Z
 ---------------------------------------------------------------------
      1          6           0       -0.724728    3.764726    0.000000
      2          6           0        0.724730    3.764727    0.000000
      3          6           0        1.146492    5.141304    0.000000
      4          6           0       -0.000000    5.944900    0.000000
      5          6           0       -1.146490    5.141308    0.000000
      6          6           0       -1.517417    2.628260    0.000000
      7          6           0        1.517422    2.628257    0.000000
      8          6           0       -2.897955    2.509986    0.000000
      9          6           0       -3.622630    1.254700    0.000000
     10          6           0       -3.034749    0.000003    0.000000
     11          6           0       -3.622632   -1.254699    0.000000
     12          6           0       -2.897955   -2.509983    0.000000
     13          6           0       -1.517422   -2.628257    0.000000
     14          6           0       -0.724730   -3.764727    0.000000
     15          6           0        0.724728   -3.764726    0.000000
     16          6           0        1.517417   -2.628260    0.000000
     17          6           0        2.897955   -2.509986    0.000000
     18          6           0        3.622630   -1.254700    0.000000
     19          6           0        3.034749   -0.000003    0.000000
     20          6           0        3.622632    1.254699    0.000000
     21          6           0        2.897955    2.509983    0.000000
     22          6           0        5.025621    1.577729    0.000000
     23          6           0        5.148383    2.972447    0.000000
     24          6           0        3.879181    3.563573    0.000000
     25          6           0        3.879176   -3.563572    0.000000
     26          6           0        5.148384   -2.972447    0.000000
     27          6           0        5.025624   -1.577733    0.000000
     28          6           0       -1.146492   -5.141304    0.000000
     29          6           0        0.000000   -5.944900    0.000000
     30          6           0        1.146490   -5.141308    0.000000
     31          6           0       -5.025621   -1.577729    0.000000
     32          6           0       -5.148383   -2.972447    0.000000
     33          6           0       -3.879181   -3.563573    0.000000
     34          6           0       -3.879176    3.563572    0.000000
     35          6           0       -5.148384    2.972447    0.000000
     36          6           0       -5.025624    1.577733    0.000000
     37          6           0       -2.476549    5.650385    0.000000
     38          6           0       -3.655010    4.969993    0.000000
     39          6           0       -6.131533    0.680384    0.000000
     40          6           0       -6.131532   -0.680383    0.000000
     41          6           0       -3.655012   -4.969994    0.000000
     42          6           0       -2.476550   -5.650384    0.000000
     43          6           0        2.476549   -5.650385    0.000000
     44          6           0        3.655010   -4.969993    0.000000
     45          6           0        6.131533   -0.680384    0.000000
     46          6           0        6.131532    0.680383    0.000000
     47          6           0        3.655012    4.969994    0.000000
     48          6           0        2.476550    5.650384    0.000000
     49          1           0       -2.547435   -6.735023    0.000000
     50          1           0       -4.558891   -5.573706    0.000000
     51          1           0       -6.085526   -3.513493    0.000000
     52          1           0       -7.106306   -1.161305    0.000000
     53          1           0       -7.106308    1.161304    0.000000
     54          1           0       -6.085524    3.513497    0.000000
     55          1           0       -4.558891    5.573704    0.000000
     56          1           0       -2.547436    6.735024    0.000000
     57          1           0        0.000002    7.027006    0.000000
     58          1           0        2.547435    6.735023    0.000000
     59          1           0        4.558891    5.573706    0.000000
     60          1           0        6.085526    3.513493    0.000000
     61          1           0        7.106306    1.161305    0.000000
     62          1           0        7.106308   -1.161304    0.000000
     63          1           0        6.085524   -3.513497    0.000000
     64          1           0        4.558891   -5.573704    0.000000
     65          1           0        2.547436   -6.735024    0.000000
     66          1           0       -0.000002   -7.027006    0.000000
     67          1           0       -0.974299   -1.687769    0.000000
     68          1           0       -1.948637    0.000001    0.000000
     69          1           0       -0.974297    1.687771    0.000000
     70          1           0        0.974299    1.687769    0.000000
     71          1           0        1.948637   -0.000001    0.000000
     72          1           0        0.974297   -1.687771    0.000000
 ---------------------------------------------------------------------

 The electronic state is 1-AG.
 Alpha  occ. eigenvalues --  -10.32449 -10.32448 -10.32448 -10.32447 -10.32447
 Alpha  occ. eigenvalues --  -10.32447 -10.31040 -10.31040 -10.31040 -10.31040
 Alpha  occ. eigenvalues --  -10.31040 -10.31040 -10.31040 -10.31040 -10.31039
 Alpha  occ. eigenvalues --  -10.31039 -10.31039 -10.31039 -10.30793 -10.30793
 Alpha  occ. eigenvalues --  -10.30793 -10.30793 -10.30793 -10.30793 -10.30721
 Alpha  occ. eigenvalues --  -10.30721 -10.30721 -10.30721 -10.30721 -10.30721
 Alpha  occ. eigenvalues --  -10.30533 -10.30533 -10.30533 -10.30531 -10.30531
 Alpha  occ. eigenvalues --  -10.30530 -10.30494 -10.30494 -10.30494 -10.30493
 Alpha  occ. eigenvalues --  -10.30493 -10.30493 -10.28121 -10.28121 -10.28121
 Alpha  occ. eigenvalues --  -10.28121 -10.28120 -10.28120  -1.01423  -1.00890
 Alpha  occ. eigenvalues --   -1.00890  -0.99546  -0.99546  -0.98528  -0.94087
 Alpha  occ. eigenvalues --   -0.92577  -0.92577  -0.92015  -0.91345  -0.91345
 Alpha  occ. eigenvalues --   -0.89469  -0.89469  -0.89186  -0.89186  -0.87161
 Alpha  occ. eigenvalues --   -0.86843  -0.84810  -0.83564  -0.81780  -0.81780
 Alpha  occ. eigenvalues --   -0.80535  -0.80535  -0.77432  -0.77432  -0.75615
 Alpha  occ. eigenvalues --   -0.75615  -0.73729  -0.73459  -0.72301  -0.70534
 Alpha  occ. eigenvalues --   -0.70534  -0.69714  -0.69643  -0.69642  -0.66124
 Alpha  occ. eigenvalues --   -0.66124  -0.66114  -0.65713  -0.63406  -0.63406
 Alpha  occ. eigenvalues --   -0.61903  -0.60819  -0.60818  -0.60023  -0.60022
 Alpha  occ. eigenvalues --   -0.59173  -0.58006  -0.57917  -0.57916  -0.57366
 Alpha  occ. eigenvalues --   -0.57366  -0.55736  -0.55191  -0.55191  -0.54228
 Alpha  occ. eigenvalues --   -0.53944  -0.53943  -0.53519  -0.52601  -0.52047
 Alpha  occ. eigenvalues --   -0.51275  -0.51275  -0.50811  -0.50810  -0.49292
 Alpha  occ. eigenvalues --   -0.49182  -0.49182  -0.48798  -0.48797  -0.48741
 Alpha  occ. eigenvalues --   -0.48292  -0.48292  -0.48158  -0.47480  -0.47480
 Alpha  occ. eigenvalues --   -0.47063  -0.45497  -0.45497  -0.45171  -0.45171
 Alpha  occ. eigenvalues --   -0.44757  -0.44686  -0.44369  -0.43508  -0.43507
 Alpha  occ. eigenvalues --   -0.42547  -0.42199  -0.41863  -0.41863  -0.41791
 Alpha  occ. eigenvalues --   -0.41626  -0.41626  -0.41003  -0.41003  -0.37959
 Alpha  occ. eigenvalues --   -0.37958  -0.36599  -0.36598  -0.35241  -0.31620
 Alpha  occ. eigenvalues --   -0.30787  -0.29220  -0.25291  -0.25291  -0.24917
 Alpha  occ. eigenvalues --   -0.24917
 Alpha virt. eigenvalues --   -0.05661  -0.05661  -0.02769  -0.02768  -0.02143
 Alpha virt. eigenvalues --    0.01908   0.01914   0.03746   0.04020   0.04020
 Alpha virt. eigenvalues --    0.04544   0.04544   0.04976   0.05035   0.05036

 Mulliken charges:
               1
     1  C   -0.032469
     2  C   -0.032464
     3  C    0.179649
     4  C   -0.265424
     5  C    0.179645
     6  C   -0.175847
     7  C   -0.175847
     8  C   -0.032179
     9  C   -0.032351
    10  C   -0.175776
    11  C   -0.032346
    12  C   -0.032184
    13  C   -0.175847
    14  C   -0.032464
    15  C   -0.032469
    16  C   -0.175847
    17  C   -0.032179
    18  C   -0.032351
    19  C   -0.175776
    20  C   -0.032346
    21  C   -0.032184
    22  C    0.179998
    23  C   -0.265437
    24  C    0.179640
    25  C    0.179644
    26  C   -0.265438
    27  C    0.179994
    28  C    0.179649
    29  C   -0.265424
    30  C    0.179645
    31  C    0.179998
    32  C   -0.265437
    33  C    0.179640
    34  C    0.179644
    35  C   -0.265438
    36  C    0.179994
    37  C   -0.120879
    38  C   -0.120873
    39  C   -0.121140
    40  C   -0.121142
    41  C   -0.120871
    42  C   -0.120881
    43  C   -0.120879
    44  C   -0.120873
    45  C   -0.121140
    46  C   -0.121142
    47  C   -0.120871
    48  C   -0.120881
    49  H    0.188416
    50  H    0.188410
    51  H    0.165469
    52  H    0.188418
    53  H    0.188418
    54  H    0.165469
    55  H    0.188409
    56  H    0.188417
    57  H    0.165461
    58  H    0.188416
    59  H    0.188410
    60  H    0.165469
    61  H    0.188418
    62  H    0.188418
    63  H    0.165469
    64  H    0.188409
    65  H    0.188417
    66  H    0.165461
    67  H   -0.153705
    68  H   -0.154500
    69  H   -0.153705
    70  H   -0.153705
    71  H   -0.154500
    72  H   -0.153705
 Sum of Mulliken charges =  -0.00000

 Dipole moment (field-independent basis, Debye):
    X=             -0.0000    Y=             -0.0000    Z=              0.0000  Tot=              0.0000
 Quadrupole moment (field-independent basis, Debye-Ang):
   XX=           -234.6209   YY=           -234.6196   ZZ=           -292.1101
   XY=             -0.0000   XZ=              0.0000   YZ=              0.0000

 Normal termination of Gaussian 16 at Sat Sep  3 08:20:55 2022.
