 Gaussian 16, Revision A.03,
 Gaussian 16:  ES64L-G16RevA.03 25-Dec-2016

 --------------------------------------------
 # opt wb97xd/6-311++g(d,p) geom=connectivity
 --------------------------------------------

 ---------------
 Fiveseven-4.cdx
 ---------------
 Symbolic Z-matrix:
 Charge =  0 Multiplicity = 1

 SCF Done:  E(RwB97XD) =  -2764.84559264     A.U. after   14 cycles
 SCF Done:  E(RwB97XD) =  -2764.84615864     A.U. after   10 cycles
 SCF Done:  E(RwB97XD) =  -2764.84617229     A.U. after    9 cycles
 Optimization completed.
    -- Stationary point found.

                         Standard orientation:
 ---------------------------------------------------------------------
 Center     Atomic      Atomic             Coordinates (Angstroms)
 Number     Number       Type             X           Y           Z
 ---------------------------------------------------------------------
      1          6           0        5.974296    2.948481    0.000000
      2          6           0        6.471996    1.581154    0.000000
      3          6           0        5.322486    0.715946    0.000000
      4          6           0        4.176408    1.519844    0.000000
      5          6           0        4.537568    2.872327    0.000000
      6          6           0        3.616960    3.969067    0.000000
      7          6           0        3.941144    5.370730    0.000000
      8          6           0        5.186677    5.980703    0.000000
      9          6           0        6.454844    5.416217    0.000000
     10          6           0        6.790944    4.069398    0.000000
     11          6           0        2.222261    3.847866    0.000000
     12          6           0        1.629319    5.116074    0.000000
     13          6           0        2.680900    6.097996    0.000000
     14          6           0        0.219125    5.364605    0.000000
     15          6           0       -0.433346    6.646881    0.000000
     16          6           0        0.128706    7.914719    0.000000
     17          6           0        1.463014    8.297449    0.000000
     18          6           0        2.586092    7.481633    0.000000
     19          6           0       -0.771646    4.375589    0.000000
     20          6           0       -2.040937    4.966170    0.000000
     21          6           0       -1.866345    6.394215    0.000000
     22          6           0       -3.281130    4.250418    0.000000
     23          6           0       -4.605066    4.813654    0.000000
     24          6           0       -4.989140    6.146290    0.000000
     25          6           0       -4.212746    7.296997    0.000000
     26          6           0       -2.828005    7.393527    0.000000
     27          6           0       -3.404760    2.855945    0.000000
     28          6           0       -4.756756    2.492881    0.000000
     29          6           0       -5.540693    3.699232    0.000000
     30          6           0       -5.246725    1.147402    0.000000
     31          6           0       -6.622872    0.727561    0.000000
     32          6           0       -7.773604    1.501694    0.000000
     33          6           0       -7.918328    2.882289    0.000000
     34          6           0       -6.919715    3.846484    0.000000
     35          6           0       -4.444701    0.000025    0.000000
     36          6           0       -5.246729   -1.147369    0.000000
     37          6           0       -6.622863   -0.727540    0.000000
     38          6           0       -4.756741   -2.492842    0.000000
     39          6           0       -5.540687   -3.699204    0.000000
     40          6           0       -6.919695   -3.846463    0.000000
     41          6           0       -7.918322   -2.882266    0.000000
     42          6           0       -7.773605   -1.501682    0.000000
     43          6           0       -3.404760   -2.855914    0.000000
     44          6           0       -3.281139   -4.250402    0.000000
     45          6           0       -4.605065   -4.813620    0.000000
     46          6           0       -2.040945   -4.966155    0.000000
     47          6           0       -1.866362   -6.394218    0.000000
     48          6           0       -2.828031   -7.393507    0.000000
     49          6           0       -4.212786   -7.296960    0.000000
     50          6           0       -4.989161   -6.146258    0.000000
     51          6           0       -0.771660   -4.375595    0.000000
     52          6           0        0.219115   -5.364628    0.000000
     53          6           0       -0.433355   -6.646889    0.000000
     54          6           0        1.629308   -5.116086    0.000000
     55          6           0        2.680901   -6.098019    0.000000
     56          6           0        2.586085   -7.481648    0.000000
     57          6           0        1.462999   -8.297466    0.000000
     58          6           0        0.128700   -7.914738    0.000000
     59          6           0        2.222251   -3.847893    0.000000
     60          6           0        3.616962   -3.969099    0.000000
     61          6           0        3.941142   -5.370748    0.000000
     62          6           0        4.537560   -2.872350    0.000000
     63          6           0        5.974306   -2.948502    0.000000
     64          6           0        6.790944   -4.069408    0.000000
     65          6           0        6.454842   -5.416242    0.000000
     66          6           0        5.186690   -5.980724    0.000000
     67          6           0        4.176408   -1.519880    0.000000
     68          6           0        5.322496   -0.715972    0.000000
     69          6           0        6.471998   -1.581165    0.000000
     70          6           0        7.818165    1.247653    0.000000
     71          6           0        8.426643   -0.000004    0.000000
     72          6           0        7.818177   -1.247657    0.000000
     73          1           0        3.526932    8.023425    0.000000
     74          1           0        1.651315    9.365837    0.000000
     75          1           0       -0.570472    8.745321    0.000000
     76          1           0       -2.454911    8.413124    0.000000
     77          1           0       -4.755043    8.236590    0.000000
     78          1           0       -6.058537    6.333581    0.000000
     79          1           0       -7.289408    4.867317    0.000000
     80          1           0       -8.937705    3.253483    0.000000
     81          1           0       -8.713369    0.958068    0.000000
     82          1           0       -8.713368   -0.958054    0.000000
     83          1           0       -8.937694   -3.253473    0.000000
     84          1           0       -7.289375   -4.867304    0.000000
     85          1           0       -6.058564   -6.333525    0.000000
     86          1           0       -2.454968   -8.413112    0.000000
     87          1           0       -4.755088   -8.236550    0.000000
     88          1           0       -0.570472   -8.745341    0.000000
     89          1           0        3.526920   -8.023448    0.000000
     90          1           0        1.651303   -9.365854    0.000000
     91          1           0        7.285811   -6.113666    0.000000
     92          1           0        5.185032   -7.066435    0.000000
     93          1           0        7.859923   -3.879725    0.000000
     94          1           0        9.511497    0.000003    0.000000
     95          1           0        8.514948   -2.080270    0.000000
     96          1           0        8.514935    2.080268    0.000000
     97          1           0        7.859921    3.879704    0.000000
     98          1           0        7.285806    6.113649    0.000000
     99          1           0        5.185018    7.066416    0.000000
    100          1           0        1.682886    2.912989    0.000000
    101          1           0       -0.584278    3.312655    0.000000
    102          1           0       -2.578240    2.161818    0.000000
    103          1           0       -3.365377    0.000019    0.000000
    104          1           0       -2.578237   -2.161792    0.000000
    105          1           0       -0.584261   -3.312667    0.000000
    106          1           0        1.682880   -2.913014    0.000000
    107          1           0        3.162100   -1.150915    0.000000
    108          1           0        3.162096    1.150891    0.000000
 ---------------------------------------------------------------------

 The electronic state is 1-A'.
 Alpha  occ. eigenvalues --  -10.31545 -10.31544 -10.31544 -10.31544 -10.31544
 Alpha  occ. eigenvalues --  -10.31544 -10.31544 -10.31544 -10.31543 -10.31543
 Alpha  occ. eigenvalues --  -10.31543 -10.31543 -10.31543 -10.31543 -10.31543
 Alpha  occ. eigenvalues --  -10.31543 -10.31542 -10.31542 -10.30894 -10.30894
 Alpha  occ. eigenvalues --  -10.30894 -10.30893 -10.30893 -10.30892 -10.30891
 Alpha  occ. eigenvalues --  -10.30891 -10.30891 -10.30852 -10.30851 -10.30851
 Alpha  occ. eigenvalues --  -10.30851 -10.30851 -10.30850 -10.30850 -10.30849
 Alpha  occ. eigenvalues --  -10.30849 -10.30348 -10.30347 -10.30347 -10.30346
 Alpha  occ. eigenvalues --  -10.30346 -10.30345 -10.30345 -10.30345 -10.30345
 Alpha  occ. eigenvalues --  -10.30311 -10.30310 -10.30310 -10.30309 -10.30309
 Alpha  occ. eigenvalues --  -10.30309 -10.30309 -10.30308 -10.30308 -10.29697
 Alpha  occ. eigenvalues --  -10.29697 -10.29697 -10.29697 -10.29696 -10.29696
 Alpha  occ. eigenvalues --  -10.29696 -10.29696 -10.29696 -10.27436 -10.27436
 Alpha  occ. eigenvalues --  -10.27436 -10.27436 -10.27435 -10.27435 -10.27434
 Alpha  occ. eigenvalues --  -10.27434 -10.27434  -1.01286  -1.00991  -1.00991
 Alpha  occ. eigenvalues --   -1.00136  -1.00136  -0.98840  -0.98840  -0.97497
 Alpha  occ. eigenvalues --   -0.97496  -0.93556  -0.93555  -0.92912  -0.92729
 Alpha  occ. eigenvalues --   -0.92728  -0.92415  -0.92414  -0.92307  -0.92307
 Alpha  occ. eigenvalues --   -0.88687  -0.88687  -0.87746  -0.87745  -0.87692
 Alpha  occ. eigenvalues --   -0.87692  -0.85749  -0.85748  -0.85308  -0.85308
 Alpha  occ. eigenvalues --   -0.84101  -0.82741  -0.82453  -0.82453  -0.81143
 Alpha  occ. eigenvalues --   -0.81143  -0.79592  -0.79592  -0.78061  -0.78061
 Alpha  occ. eigenvalues --   -0.76455  -0.76455  -0.74647  -0.74647  -0.74027
 Alpha  occ. eigenvalues --   -0.74027  -0.71385  -0.71385  -0.71330  -0.70790
 Alpha  occ. eigenvalues --   -0.70334  -0.70333  -0.69262  -0.69262  -0.69206
 Alpha  occ. eigenvalues --   -0.69205  -0.68934  -0.65606  -0.65606  -0.64224
 Alpha  occ. eigenvalues --   -0.64223  -0.63942  -0.63941  -0.62268  -0.62268
 Alpha  occ. eigenvalues --   -0.61376  -0.61375  -0.61243  -0.61243  -0.60626
 Alpha  occ. eigenvalues --   -0.59531  -0.59531  -0.59176  -0.59176  -0.59068
 Alpha  occ. eigenvalues --   -0.58978  -0.58977  -0.58156  -0.58155  -0.57087
 Alpha  occ. eigenvalues --   -0.57086  -0.56061  -0.56061  -0.54957  -0.54096
 Alpha  occ. eigenvalues --   -0.54096  -0.53749  -0.53748  -0.52644  -0.52642
 Alpha  occ. eigenvalues --   -0.52129  -0.52129  -0.51880  -0.51483  -0.51483
 Alpha  occ. eigenvalues --   -0.50589  -0.50589  -0.50337  -0.50337  -0.50322
 Alpha  occ. eigenvalues --   -0.50322  -0.49214  -0.49214  -0.49001  -0.49000
 Alpha  occ. eigenvalues --   -0.48499  -0.48499  -0.48308  -0.47984  -0.47821
 Alpha  occ. eigenvalues --   -0.47821  -0.47707  -0.47707  -0.47535  -0.47535
 Alpha  occ. eigenvalues --   -0.47217  -0.47217  -0.46260  -0.46260  -0.46230
 Alpha  occ. eigenvalues --   -0.46230  -0.45736  -0.45736  -0.45470  -0.45469
 Alpha  occ. eigenvalues --   -0.45062  -0.45062  -0.44371  -0.43324  -0.43323
 Alpha  occ. eigenvalues --   -0.42609  -0.42482  -0.42398  -0.42398  -0.42185
 Alpha  occ. eigenvalues --   -0.42185  -0.41767  -0.41767  -0.41732  -0.41732
 Alpha  occ. eigenvalues --   -0.41417  -0.41417  -0.41337  -0.41337  -0.41319
 Alpha  occ. eigenvalues --   -0.41319  -0.37240  -0.37240  -0.35926  -0.35926
 Alpha  occ. eigenvalues --   -0.35745  -0.35745  -0.33110  -0.33109  -0.31015
 Alpha  occ. eigenvalues --   -0.30472  -0.30472  -0.27279  -0.26425  -0.26424
 Alpha  occ. eigenvalues --   -0.25152  -0.25151  -0.23606  -0.23606
 Alpha virt. eigenvalues --   -0.05666  -0.05666  -0.04786  -0.04785  -0.01912
 Alpha virt. eigenvalues --   -0.01912  -0.01416  -0.01416   0.01272   0.02826
 Alpha virt. eigenvalues --    0.02826   0.03327   0.03442   0.03442   0.03841

 Mulliken charges:
               1
     1  C    0.684724
     2  C    0.684569
     3  C    0.096397
     4  C   -0.303910
     5  C    0.096155
     6  C    0.096676
     7  C    0.683993
     8  C   -0.456382
     9  C   -0.665792
    10  C   -0.456399
    11  C   -0.303990
    12  C    0.096349
    13  C    0.683934
    14  C    0.096615
    15  C    0.683792
    16  C   -0.456577
    17  C   -0.664736
    18  C   -0.456642
    19  C   -0.304559
    20  C    0.096899
    21  C    0.683662
    22  C    0.096644
    23  C    0.684058
    24  C   -0.456506
    25  C   -0.664754
    26  C   -0.456677
    27  C   -0.304027
    28  C    0.096392
    29  C    0.684331
    30  C    0.096474
    31  C    0.684329
    32  C   -0.455924
    33  C   -0.666187
    34  C   -0.456483
    35  C   -0.303659
    36  C    0.096489
    37  C    0.684340
    38  C    0.096357
    39  C    0.684296
    40  C   -0.456488
    41  C   -0.666158
    42  C   -0.455942
    43  C   -0.304039
    44  C    0.096678
    45  C    0.684062
    46  C    0.096885
    47  C    0.683644
    48  C   -0.456643
    49  C   -0.664748
    50  C   -0.456542
    51  C   -0.304558
    52  C    0.096626
    53  C    0.683799
    54  C    0.096312
    55  C    0.683930
    56  C   -0.456630
    57  C   -0.664740
    58  C   -0.456580
    59  C   -0.303987
    60  C    0.096712
    61  C    0.684009
    62  C    0.096145
    63  C    0.684722
    64  C   -0.456369
    65  C   -0.665817
    66  C   -0.456400
    67  C   -0.303907
    68  C    0.096423
    69  C    0.684590
    70  C   -0.456483
    71  C   -0.665853
    72  C   -0.456482
    73  H    0.057567
    74  H    0.290294
    75  H    0.057381
    76  H    0.057368
    77  H    0.290293
    78  H    0.057551
    79  H    0.057400
    80  H    0.290315
    81  H    0.057597
    82  H    0.057597
    83  H    0.290316
    84  H    0.057392
    85  H    0.057548
    86  H    0.057370
    87  H    0.290293
    88  H    0.057387
    89  H    0.057566
    90  H    0.290294
    91  H    0.290310
    92  H    0.057378
    93  H    0.057586
    94  H    0.290301
    95  H    0.057498
    96  H    0.057495
    97  H    0.057585
    98  H    0.290311
    99  H    0.057377
   100  H   -0.084114
   101  H   -0.084115
   102  H   -0.084143
   103  H   -0.084379
   104  H   -0.084129
   105  H   -0.084123
   106  H   -0.084113
   107  H   -0.084350
   108  H   -0.084347
 Sum of Mulliken charges =  -0.00000

 Dipole moment (field-independent basis, Debye):
    X=              0.0013    Y=              0.0000    Z=              0.0000  Tot=              0.0013
 Quadrupole moment (field-independent basis, Debye-Ang):
   XX=           -312.4754   YY=           -312.4853   ZZ=           -438.4188
   XY=              0.0005   XZ=              0.0000   YZ=              0.0000

 Normal termination of Gaussian 16 at Tue Sep  6 03:21:29 2022.
