 Gaussian 16, Revision A.03,
 Gaussian 16:  ES64L-G16RevA.03 25-Dec-2016

 -------------------------------------------------
 # opt freq wb97xd/6-311++g(d,p) geom=connectivity
 -------------------------------------------------

 ------------
 coranene.cdx
 ------------
 Symbolic Z-matrix:
 Charge =  0 Multiplicity = 1

 SCF Done:  E(RwB97XD) =  -921.769326667     A.U. after   13 cycles
 SCF Done:  E(RwB97XD) =  -921.769979323     A.U. after   10 cycles
 SCF Done:  E(RwB97XD) =  -921.769908086     A.U. after    8 cycles
 Optimization completed.
    -- Stationary point found.
 Normal termination of Gaussian 16 at Thu Sep  8 11:53:15 2022.

 ----------------------------------------------------------------------
 #N Geom=AllCheck Guess=TCheck SCRF=Check GenChk RwB97XD/6-311++G(d,p)
 Freq
 ----------------------------------------------------------------------

 Structure from the checkpoint file:  "coranene_IRC_2.chk"
 ------------
 coranene.cdx
 ------------
 Charge =  0 Multiplicity = 1

                         Standard orientation:
 ---------------------------------------------------------------------
 Center     Atomic      Atomic             Coordinates (Angstroms)
 Number     Number       Type             X           Y           Z
 ---------------------------------------------------------------------
      1          6           0       -1.350889    0.451551   -0.001569
      2          6           0       -0.284386    1.395672    0.001579
      3          6           0        1.066508    0.944120   -0.001625
      4          6           0        1.350889   -0.451551    0.001572
      5          6           0        0.284386   -1.395672   -0.001576
      6          6           0       -1.066508   -0.944120    0.001636
      7          6           0        0.565476   -2.775174   -0.000180
      8          6           0       -0.517273   -3.697215    0.000013
      9          6           0       -1.810025   -3.265092    0.000018
     10          6           0       -2.120663   -1.877292    0.000174
     11          6           0       -2.686117    0.897883   -0.000180
     12          6           0       -2.943257    2.296599   -0.000170
     13          6           0       -1.922657    3.200081    0.000133
     14          6           0       -0.565476    2.775174    0.000171
     15          6           0        2.120663    1.877292   -0.000151
     16          6           0        3.460548    1.400646   -0.000014
     17          6           0        3.732690    0.065044    0.000001
     18          6           0        2.686117   -0.897883    0.000171
     19          6           0        0.517273    3.697215   -0.000009
     20          6           0        1.810025    3.265091    0.000007
     21          6           0        2.943257   -2.296599    0.000134
     22          6           0        1.922657   -3.200081   -0.000169
     23          6           0       -3.460549   -1.400646    0.000037
     24          6           0       -3.732690   -0.065044    0.000001
     25          1           0       -4.270405   -2.122921    0.000022
     26          1           0       -4.760578    0.282774    0.000019
     27          1           0       -3.973695    2.636798   -0.000016
     28          1           0       -2.135386    4.264174   -0.000059
     29          1           0        0.296656    4.759701   -0.000005
     30          1           0        2.625214    3.981341    0.000026
     31          1           0        4.270405    2.122921    0.000018
     32          1           0        4.760579   -0.282774   -0.000011
     33          1           0        3.973695   -2.636798   -0.000053
     34          1           0        2.135386   -4.264174   -0.000009
     35          1           0       -0.296655   -4.759701    0.000016
     36          1           0       -2.625214   -3.981342    0.000017
 ---------------------------------------------------------------------

 SCF Done:  E(RwB97XD) =  -921.769908086     A.U. after    1 cycles

 The electronic state is 1-A.
 Alpha  occ. eigenvalues --  -10.30498 -10.30481 -10.30481 -10.30452 -10.30452
 Alpha  occ. eigenvalues --  -10.30445 -10.30418 -10.30415 -10.30415 -10.30399
 Alpha  occ. eigenvalues --  -10.30399 -10.30384 -10.29603 -10.29602 -10.29602
 Alpha  occ. eigenvalues --  -10.29601 -10.29601 -10.29600 -10.29531 -10.29531
 Alpha  occ. eigenvalues --  -10.29530 -10.29530 -10.29530 -10.29529  -1.01875
 Alpha  occ. eigenvalues --   -0.98130  -0.98130  -0.93269  -0.93269  -0.91475
 Alpha  occ. eigenvalues --   -0.88386  -0.86785  -0.85090  -0.85089  -0.81759
 Alpha  occ. eigenvalues --   -0.81759  -0.73846  -0.73846  -0.73318  -0.73317
 Alpha  occ. eigenvalues --   -0.72760  -0.65998  -0.65571  -0.63684  -0.63684
 Alpha  occ. eigenvalues --   -0.63612  -0.61387  -0.57017  -0.57017  -0.55264
 Alpha  occ. eigenvalues --   -0.55264  -0.54890  -0.54889  -0.52736  -0.52066
 Alpha  occ. eigenvalues --   -0.51305  -0.51304  -0.50839  -0.49274  -0.49274
 Alpha  occ. eigenvalues --   -0.48237  -0.48237  -0.46331  -0.46160  -0.44747
 Alpha  occ. eigenvalues --   -0.44746  -0.44746  -0.42318  -0.42318  -0.40463
 Alpha  occ. eigenvalues --   -0.40166  -0.40166  -0.35657  -0.34882  -0.33245
 Alpha  occ. eigenvalues --   -0.33244  -0.27382  -0.27382
 Alpha virt. eigenvalues --   -0.00513  -0.00513   0.03870   0.03939   0.03939
 Alpha virt. eigenvalues --    0.04322   0.04322   0.05345   0.05345   0.05540
 Alpha virt. eigenvalues --    0.06746   0.06793   0.08553   0.08593   0.08593

 Mulliken charges:
               1
     1  C    0.005027
     2  C    0.004985
     3  C    0.005009
     4  C    0.005025
     5  C    0.004987
     6  C    0.005012
     7  C    0.299992
     8  C   -0.327466
     9  C   -0.327396
    10  C    0.299780
    11  C    0.299940
    12  C   -0.327335
    13  C   -0.327350
    14  C    0.299992
    15  C    0.299777
    16  C   -0.327412
    17  C   -0.327474
    18  C    0.299940
    19  C   -0.327471
    20  C   -0.327400
    21  C   -0.327336
    22  C   -0.327349
    23  C   -0.327407
    24  C   -0.327468
    25  H    0.174962
    26  H    0.174947
    27  H    0.174943
    28  H    0.174950
    29  H    0.174940
    30  H    0.174958
    31  H    0.174962
    32  H    0.174947
    33  H    0.174942
    34  H    0.174950
    35  H    0.174940
    36  H    0.174958
 Sum of Mulliken charges =  -0.00000

 Dipole moment (field-independent basis, Debye):
    X=              0.0000    Y=              0.0000    Z=             -0.0000  Tot=              0.0000
 Quadrupole moment (field-independent basis, Debye-Ang):
   XX=           -116.6011   YY=           -116.6023   ZZ=           -145.7129
   XY=             -0.0006   XZ=             -0.0002   YZ=             -0.0002

  Exact polarizability: 370.236   0.014 370.210   0.002   0.001 120.253
 Approx polarizability: 448.797  -0.001 448.794   0.006   0.004 161.187

                      1                      2                      3
                      A                      A                      A
 Frequencies --     87.3633                87.4937               124.9074
 Red. masses --      4.9980                 4.9986                 4.9704
 Frc consts  --      0.0225                 0.0225                 0.0457
 IR Inten    --      0.0002                 0.0001                 7.4411

                      4                      5                      6
                      A                      A                      A
 Frequencies --    164.9616               217.0555               252.8193
 Red. masses --      4.0583                 6.3639                 7.2403
 Frc consts  --      0.0651                 0.1766                 0.2727
 IR Inten    --      0.0000                 0.0000                 0.0000

                      7                      8                      9
                      A                      A                      A
 Frequencies --    297.5949               297.7956               302.4253
 Red. masses --      4.8009                 4.8063                 4.0420
 Frc consts  --      0.2505                 0.2511                 0.2178
 IR Inten    --      0.0000                 0.0000                 0.0000

                     10                     11                     12
                      A                      A                      A
 Frequencies --    302.6203               372.9237               373.0269
 Red. masses --      4.0476                 8.4971                 8.4967
 Frc consts  --      0.2184                 0.6962                 0.6966
 IR Inten    --      0.0000                 0.0000                 0.0000

                     13                     14                     15
                      A                      A                      A
 Frequencies --    388.0037               388.1258               459.7570
 Red. masses --      5.4892                 5.4885                 3.7685
 Frc consts  --      0.4869                 0.4871                 0.4693
 IR Inten    --      3.5533                 3.5275                 0.0000

                     16                     17                     18
                      A                      A                      A
 Frequencies --    459.8627               484.2968               490.7025
 Red. masses --      3.7725                 8.0563                 7.2257
 Frc consts  --      0.4700                 1.1133                 1.0251
 IR Inten    --      0.0000                 0.0001                 0.0000

                     19                     20                     21
                      A                      A                      A
 Frequencies --    501.6327               501.9451               536.1601
 Red. masses --      4.4978                 4.4942                 3.3569
 Frc consts  --      0.6668                 0.6671                 0.5686
 IR Inten    --      0.0000                 0.0000                 0.0000

                     22                     23                     24
                      A                      A                      A
 Frequencies --    539.9954               540.1307               564.1758
 Red. masses --      5.0027                 5.0080                 3.2445
 Frc consts  --      0.8595                 0.8608                 0.6085
 IR Inten    --      0.0034                 0.0035                46.3935

                     25                     26                     27
                      A                      A                      A
 Frequencies --    572.6796               649.5420               672.3672
 Red. masses --      4.6196                 9.3465                 3.3749
 Frc consts  --      0.8926                 2.3233                 0.8989
 IR Inten    --      0.0398                 0.0000                 0.0000

                     28                     29                     30
                      A                      A                      A
 Frequencies --    672.6276               685.2336               693.9548
 Red. masses --      3.3840                 4.8707                 6.7714
 Frc consts  --      0.9020                 1.3475                 1.9213
 IR Inten    --      0.0000                 0.0000                 0.0000

                     31                     32                     33
                      A                      A                      A
 Frequencies --    694.1815               703.3729               737.8556
 Red. masses --      6.7751                 4.9236                 3.8846
 Frc consts  --      1.9236                 1.4352                 1.2460
 IR Inten    --      0.0000                 0.0000                 0.0117

                     34                     35                     36
                      A                      A                      A
 Frequencies --    737.8870               784.4487               789.9819
 Red. masses --      3.8982                 1.2061                 5.7492
 Frc consts  --      1.2505                 0.4373                 2.1139
 IR Inten    --      0.0124                 0.0000                 8.2088

                     37                     38                     39
                      A                      A                      A
 Frequencies --    790.2200               820.7692               821.3026
 Red. masses --      5.7536                 1.5126                 1.5094
 Frc consts  --      2.1168                 0.6004                 0.5999
 IR Inten    --      8.2466                 0.0036                 0.0019

                     40                     41                     42
                      A                      A                      A
 Frequencies --    836.1289               836.2291               866.6240
 Red. masses --      7.6987                 7.7010                 1.6211
 Frc consts  --      3.1711                 3.1729                 0.7173
 IR Inten    --      0.0383                 0.0336                 0.0000

                     43                     44                     45
                      A                      A                      A
 Frequencies --    866.8639               884.8619               948.8040
 Red. masses --      1.6179                 1.6319                 4.9607
 Frc consts  --      0.7163                 0.7528                 2.6312
 IR Inten    --      0.0000               179.0996                 0.0000

                     46                     47                     48
                      A                      A                      A
 Frequencies --    986.5045               992.6389               992.9346
 Red. masses --      1.2859                 1.3085                 1.3076
 Frc consts  --      0.7373                 0.7596                 0.7596
 IR Inten    --      0.0001                 0.0000                 0.0000

                     49                     50                     51
                      A                      A                      A
 Frequencies --   1001.8188              1002.2504              1006.0238
 Red. masses --      1.3302                 1.3300                 1.3443
 Frc consts  --      0.7866                 0.7871                 0.8016
 IR Inten    --      0.0016                 0.0020                 0.0000

                     52                     53                     54
                      A                      A                      A
 Frequencies --   1021.3963              1021.7886              1061.8724
 Red. masses --      4.4574                 4.4538                 2.9533
 Frc consts  --      2.7398                 2.7397                 1.9620
 IR Inten    --      0.0000                 0.0000                 0.0000

                     55                     56                     57
                      A                      A                      A
 Frequencies --   1142.6155              1172.2574              1172.3702
 Red. masses --      1.9290                 1.3326                 1.3316
 Frc consts  --      1.4838                 1.0789                 1.0784
 IR Inten    --      0.0031                10.7030                10.5828

                     58                     59                     60
                      A                      A                      A
 Frequencies --   1192.2959              1192.5143              1192.8337
 Red. masses --      3.5855                 1.1447                 1.1458
 Frc consts  --      3.0031                 0.9591                 0.9605
 IR Inten    --      0.0014                 0.0000                 0.0000

                     61                     62                     63
                      A                      A                      A
 Frequencies --   1209.3839              1246.9521              1247.0611
 Red. masses --      2.5684                 1.6394                 1.6408
 Frc consts  --      2.2133                 1.5018                 1.5034
 IR Inten    --      0.0006                 1.1979                 1.1802

                     64                     65                     66
                      A                      A                      A
 Frequencies --   1254.4874              1254.6242              1259.0173
 Red. masses --      3.1104                 3.1196                 1.5283
 Frc consts  --      2.8840                 2.8932                 1.4273
 IR Inten    --      0.0000                 0.0000                 0.0000

                     67                     68                     69
                      A                      A                      A
 Frequencies --   1262.6136              1349.0140              1349.4745
 Red. masses --      1.4421                 3.5890                 3.5970
 Frc consts  --      1.3545                 3.8482                 3.8594
 IR Inten    --      0.0000                22.2647                22.2550

                     70                     71                     72
                      A                      A                      A
 Frequencies --   1387.1382              1409.9419              1444.2111
 Red. masses --      4.2744                 9.6197                 2.5409
 Frc consts  --      4.8458                11.2672                 3.1224
 IR Inten    --      0.0004                 0.0000                 0.0000

                     73                     74                     75
                      A                      A                      A
 Frequencies --   1444.3227              1452.1518              1459.3571
 Red. masses --      2.5471                 1.6431                 6.8603
 Frc consts  --      3.1306                 2.0415                 8.6083
 IR Inten    --      0.0000                 0.0001                 0.1611

                     76                     77                     78
                      A                      A                      A
 Frequencies --   1459.8741              1482.5241              1482.9014
 Red. masses --      6.8886                 6.0935                 6.0722
 Frc consts  --      8.6499                 7.8907                 7.8672
 IR Inten    --      0.1697                 0.0000                 0.0000

                     79                     80                     81
                      A                      A                      A
 Frequencies --   1503.4441              1503.5212              1553.8329
 Red. masses --      4.4980                 4.5194                 3.7510
 Frc consts  --      5.9902                 6.0194                 5.3359
 IR Inten    --      0.0000                 0.0000                 4.5495

                     82                     83                     84
                      A                      A                      A
 Frequencies --   1554.0333              1570.9463              1594.6257
 Red. masses --      3.7577                 7.1019                 4.3666
 Frc consts  --      5.3468                10.3263                 6.5420
 IR Inten    --      4.5175                 0.0000                 0.0000

                     85                     86                     87
                      A                      A                      A
 Frequencies --   1632.5386              1674.4444              1693.0325
 Red. masses --     11.2840                 5.8733                 6.7886
 Frc consts  --     17.7191                 9.7022                11.4646
 IR Inten    --      0.0000                 0.0000                 5.0265

                     88                     89                     90
                      A                      A                      A
 Frequencies --   1693.1980              1704.1445              1704.4131
 Red. masses --      6.7902                 8.4284                 8.4294
 Frc consts  --     11.4695                14.4214                14.4276
 IR Inten    --      5.0853                 0.0000                 0.0000

                     91                     92                     93
                      A                      A                      A
 Frequencies --   3179.6295              3180.2190              3180.4164
 Red. masses --      1.0867                 1.0869                 1.0869
 Frc consts  --      6.4732                 6.4768                 6.4775
 IR Inten    --      0.0000                 5.3228                 5.9682

                     94                     95                     96
                      A                      A                      A
 Frequencies --   3181.3036              3181.4646              3181.7125
 Red. masses --      1.0870                 1.0870                 1.0869
 Frc consts  --      6.4819                 6.4826                 6.4830
 IR Inten    --      0.0000                 0.0000                 0.0210

                     97                     98                     99
                      A                      A                      A
 Frequencies --   3198.5249              3199.0729              3199.2377
 Red. masses --      1.0974                 1.0972                 1.0972
 Frc consts  --      6.6149                 6.6155                 6.6162
 IR Inten    --      0.4990                 0.0000                 0.0000

                    100                    101                    102
                      A                      A                      A
 Frequencies --   3200.1736              3200.4093              3201.2751
 Red. masses --      1.0967                 1.0966                 1.0963
 Frc consts  --      6.6172                 6.6179                 6.6196
 IR Inten    --     82.5419                82.9109                 0.0000

 - Thermochemistry -
 -------------------
 Temperature   298.150 Kelvin.  Pressure   1.00000 Atm.
 Atom     1 has atomic number  6 and mass  12.00000

 Molecular mass:   300.09390 amu.
 Principal axes and moments of inertia in atomic units:
                           1         2         3
     Eigenvalues --  5366.584165366.64165**********
           X            0.99997  -0.00743  -0.00000
           Y            0.00743   0.99997  -0.00000
           Z            0.00000   0.00000   1.00000
 This molecule is an asymmetric top.
 Rotational symmetry number  1.
 Warning -- assumption of classical behavior for rotation
           may cause significant error
 Rotational temperatures (Kelvin)      0.01614     0.01614     0.00807
 Rotational constants (GHZ):           0.33629     0.33629     0.16815
 Zero-point vibrational energy     736148.9 (Joules/Mol)
                                  175.94382 (Kcal/Mol)
 Warning -- explicit consideration of  25 degrees of freedom as
           vibrations may cause significant error
 Vibrational temperatures:    125.70   125.88   179.71   237.34   312.29
          (Kelvin)            363.75   428.17   428.46   435.12   435.40
                              536.55   536.70   558.25   558.43   661.49
                              661.64   696.80   706.01   721.74   722.19
                              771.41   776.93   777.13   811.72   823.96
                              934.55   967.39   967.76   985.90   998.45
                              998.77  1012.00  1061.61  1061.65  1128.65
                             1136.61  1136.95  1180.90  1181.67  1203.00
                             1203.15  1246.88  1247.22  1273.12  1365.12
                             1419.36  1428.19  1428.61  1441.39  1442.01
                             1447.44  1469.56  1470.13  1527.80  1643.97
                             1686.62  1686.78  1715.45  1715.76  1716.22
                             1740.03  1794.09  1794.24  1804.93  1805.12
                             1811.45  1816.62  1940.93  1941.59  1995.78
                             2028.59  2077.90  2078.06  2089.32  2099.69
                             2100.43  2133.02  2133.56  2163.12  2163.23
                             2235.62  2235.91  2260.24  2294.31  2348.86
                             2409.15  2435.90  2436.13  2451.88  2452.27
                             4574.78  4575.63  4575.91  4577.19  4577.42
                             4577.77  4601.96  4602.75  4602.99  4604.34
                             4604.68  4605.92

 Zero-point correction=                           0.280384 (Hartree/Particle)
 Thermal correction to Energy=                    0.294856
 Thermal correction to Enthalpy=                  0.295801
 Thermal correction to Gibbs Free Energy=         0.240265
 Sum of electronic and zero-point Energies=           -921.489524
 Sum of electronic and thermal Energies=              -921.475052
 Sum of electronic and thermal Enthalpies=            -921.474108
 Sum of electronic and thermal Free Energies=         -921.529643

                     E (Thermal)             CV                S
                      KCal/Mol        Cal/Mol-Kelvin    Cal/Mol-Kelvin
 Total                  185.025             65.023            116.884
 Electronic               0.000              0.000              0.000
 Translational            0.889              2.981             42.994
 Rotational               0.889              2.981             34.091
 Vibrational            183.248             59.061             39.799
 Vibration     1          0.601              1.958              3.718
 Vibration     2          0.601              1.958              3.715
 Vibration     3          0.610              1.928              3.023
 Vibration     4          0.623              1.886              2.492
 Vibration     5          0.646              1.815              1.984
 Vibration     6          0.664              1.758              1.711
 Vibration     7          0.691              1.678              1.430
 Vibration     8          0.691              1.678              1.429
 Vibration     9          0.694              1.669              1.403
 Vibration    10          0.694              1.669              1.402
 Vibration    11          0.744              1.528              1.068
 Vibration    12          0.744              1.528              1.067
 Vibration    13          0.756              1.496              1.008
 Vibration    14          0.756              1.496              1.007
 Vibration    15          0.818              1.339              0.767
 Vibration    16          0.818              1.339              0.767
 Vibration    17          0.840              1.285              0.699
 Vibration    18          0.846              1.271              0.682
 Vibration    19          0.857              1.246              0.654
 Vibration    20          0.857              1.246              0.653
 Vibration    21          0.891              1.170              0.574
 Vibration    22          0.895              1.162              0.565
 Vibration    23          0.895              1.161              0.565
 Vibration    24          0.920              1.109              0.516
 Vibration    25          0.929              1.090              0.499

 Optimization completed.
    -- Stationary point found.
 Normal termination of Gaussian 16 at Thu Sep  8 14:23:56 2022.
