 Gaussian 16, Revision A.03,
 Gaussian 16:  ES64L-G16RevA.03 25-Dec-2016

 --------------------------------------------
 # opt wb97xd/6-311++g(d,p) geom=connectivity
 --------------------------------------------

 ---------------
 sixmember-4.cdx
 ---------------
 Symbolic Z-matrix:
 Charge =  0 Multiplicity = 1

 SCF Done:  E(RwB97XD) =  -2765.17598649     A.U. after   14 cycles
 SCF Done:  E(RwB97XD) =  -2765.17667186     A.U. after   10 cycles
 SCF Done:  E(RwB97XD) =  -2765.17668719     A.U. after    9 cycles
 Optimization completed.
    -- Stationary point found.

                         Standard orientation:
 ---------------------------------------------------------------------
 Center     Atomic      Atomic             Coordinates (Angstroms)
 Number     Number       Type             X           Y           Z
 ---------------------------------------------------------------------
      1          6           0       -7.394778    2.826048    0.000000
      2          6           0       -7.385229    1.443027    0.000000
      3          6           0       -6.138434    0.734867    0.000000
      4          6           0       -4.972869    1.461866    0.000000
      5          6           0       -4.966294    2.867743    0.000000
      6          6           0       -6.198013    3.578732    0.000000
      7          6           0       -3.752229    3.576669    0.000000
      8          6           0       -3.705867    4.949554    0.000000
      9          6           0       -4.942561    5.675038    0.000000
     10          6           0       -6.144946    4.991543    0.000000
     11          6           0       -2.433133    5.684427    0.000000
     12          6           0       -2.443200    7.118184    0.000000
     13          6           0       -3.725529    7.798388    0.000000
     14          6           0       -4.890578    7.125662    0.000000
     15          6           0       -1.220955    5.038210    0.000000
     16          6           0        0.000000    5.735162    0.000000
     17          6           0        0.000000    7.157365    0.000000
     18          6           0       -1.250110    7.817727    0.000000
     19          6           0        1.220955    5.038210    0.000000
     20          6           0        2.433133    5.684427    0.000000
     21          6           0        2.443200    7.118184    0.000000
     22          6           0        1.250110    7.817727    0.000000
     23          6           0       -8.615458    0.672661    0.000000
     24          6           0       -8.615458   -0.672661    0.000000
     25          6           0       -7.385229   -1.443027    0.000000
     26          6           0       -6.138434   -0.734867    0.000000
     27          6           0       -7.394778   -2.826047    0.000000
     28          6           0       -6.198013   -3.578732    0.000000
     29          6           0       -4.966294   -2.867743    0.000000
     30          6           0       -4.972869   -1.461866    0.000000
     31          6           0       -6.144946   -4.991543    0.000000
     32          6           0       -4.942561   -5.675038    0.000000
     33          6           0       -3.705867   -4.949554    0.000000
     34          6           0       -3.752229   -3.576669    0.000000
     35          6           0       -4.890578   -7.125662    0.000000
     36          6           0       -3.725529   -7.798388    0.000000
     37          6           0       -2.443200   -7.118184    0.000000
     38          6           0       -2.433133   -5.684427    0.000000
     39          6           0       -1.250110   -7.817727    0.000000
     40          6           0       -0.000000   -7.157365    0.000000
     41          6           0       -0.000000   -5.735162    0.000000
     42          6           0       -1.220955   -5.038210    0.000000
     43          6           0        1.250110   -7.817727    0.000000
     44          6           0        2.443200   -7.118184    0.000000
     45          6           0        2.433133   -5.684427    0.000000
     46          6           0        1.220955   -5.038210    0.000000
     47          6           0        3.725529   -7.798388    0.000000
     48          6           0        4.890578   -7.125662    0.000000
     49          6           0        4.942561   -5.675038    0.000000
     50          6           0        3.705867   -4.949554    0.000000
     51          6           0        6.144946   -4.991543    0.000000
     52          6           0        6.198013   -3.578732    0.000000
     53          6           0        4.966294   -2.867743    0.000000
     54          6           0        3.752229   -3.576669    0.000000
     55          6           0        7.394778   -2.826048    0.000000
     56          6           0        7.385229   -1.443027    0.000000
     57          6           0        6.138434   -0.734867    0.000000
     58          6           0        4.972869   -1.461866    0.000000
     59          6           0        8.615458   -0.672661    0.000000
     60          6           0        8.615458    0.672661    0.000000
     61          6           0        7.385229    1.443027    0.000000
     62          6           0        6.138434    0.734867    0.000000
     63          6           0        7.394778    2.826047    0.000000
     64          6           0        6.198013    3.578732    0.000000
     65          6           0        4.966294    2.867743    0.000000
     66          6           0        4.972869    1.461866    0.000000
     67          6           0        6.144946    4.991543    0.000000
     68          6           0        4.942561    5.675038    0.000000
     69          6           0        3.705867    4.949554    0.000000
     70          6           0        3.752229    3.576669    0.000000
     71          6           0        4.890578    7.125662    0.000000
     72          6           0        3.725529    7.798388    0.000000
     73          1           0       -5.831374    7.666587    0.000000
     74          1           0       -3.723654    8.883597    0.000000
     75          1           0       -1.272515    8.903671    0.000000
     76          1           0        1.272515    8.903671    0.000000
     77          1           0        3.723654    8.883597    0.000000
     78          1           0        5.831374    7.666587    0.000000
     79          1           0        7.074204    5.553915    0.000000
     80          1           0        8.346545    3.349429    0.000000
     81          1           0        9.554303    1.216964    0.000000
     82          1           0        9.554303   -1.216964    0.000000
     83          1           0        8.346545   -3.349429    0.000000
     84          1           0        7.074203   -5.553915    0.000000
     85          1           0        5.831374   -7.666587    0.000000
     86          1           0        3.723654   -8.883597    0.000000
     87          1           0        1.272515   -8.903671    0.000000
     88          1           0       -1.272515   -8.903671    0.000000
     89          1           0       -3.723654   -8.883597    0.000000
     90          1           0       -5.831374   -7.666587    0.000000
     91          1           0       -7.074204   -5.553915    0.000000
     92          1           0       -8.346545   -3.349429    0.000000
     93          1           0       -9.554303   -1.216964    0.000000
     94          1           0       -9.554303    1.216964    0.000000
     95          1           0       -8.346545    3.349429    0.000000
     96          1           0       -7.074203    5.553915    0.000000
     97          1           0       -2.841979    2.990175    0.000000
     98          1           0       -1.168409    3.956631    0.000000
     99          1           0        1.168409    3.956631    0.000000
    100          1           0        2.841979    2.990175    0.000000
    101          1           0        4.009587    0.967355    0.000000
    102          1           0        4.009587   -0.967355    0.000000
    103          1           0        2.841979   -2.990175    0.000000
    104          1           0        1.168409   -3.956631    0.000000
    105          1           0       -1.168409   -3.956631    0.000000
    106          1           0       -2.841979   -2.990175    0.000000
    107          1           0       -4.009587   -0.967355    0.000000
    108          1           0       -4.009587    0.967355    0.000000
 ---------------------------------------------------------------------

 The electronic state is 1-AG.
 Alpha  occ. eigenvalues --  -10.31012 -10.31012 -10.31009 -10.31009 -10.31009
 Alpha  occ. eigenvalues --  -10.31008 -10.30984 -10.30984 -10.30981 -10.30981
 Alpha  occ. eigenvalues --  -10.30981 -10.30981 -10.30935 -10.30935 -10.30934
 Alpha  occ. eigenvalues --  -10.30934 -10.30934 -10.30934 -10.30931 -10.30931
 Alpha  occ. eigenvalues --  -10.30930 -10.30930 -10.30930 -10.30930 -10.30786
 Alpha  occ. eigenvalues --  -10.30786 -10.30786 -10.30786 -10.30786 -10.30786
 Alpha  occ. eigenvalues --  -10.30537 -10.30537 -10.30537 -10.30537 -10.30537
 Alpha  occ. eigenvalues --  -10.30536 -10.29959 -10.29959 -10.29959 -10.29959
 Alpha  occ. eigenvalues --  -10.29958 -10.29958 -10.29956 -10.29956 -10.29956
 Alpha  occ. eigenvalues --  -10.29956 -10.29956 -10.29956 -10.29932 -10.29932
 Alpha  occ. eigenvalues --  -10.29932 -10.29932 -10.29931 -10.29931 -10.29851
 Alpha  occ. eigenvalues --  -10.29851 -10.29851 -10.29851 -10.29850 -10.29850
 Alpha  occ. eigenvalues --  -10.29730 -10.29730 -10.29730 -10.29729 -10.29728
 Alpha  occ. eigenvalues --  -10.29728 -10.29727 -10.29727 -10.29727 -10.29727
 Alpha  occ. eigenvalues --  -10.29725 -10.29725  -1.01077  -1.00821  -1.00820
 Alpha  occ. eigenvalues --   -1.00060  -1.00059  -0.98886  -0.98763  -0.97168
 Alpha  occ. eigenvalues --   -0.97168  -0.95182  -0.95181  -0.93326  -0.92794
 Alpha  occ. eigenvalues --   -0.91691  -0.91691  -0.90816  -0.90814  -0.90604
 Alpha  occ. eigenvalues --   -0.90012  -0.89342  -0.89342  -0.88859  -0.87667
 Alpha  occ. eigenvalues --   -0.87666  -0.86686  -0.86686  -0.85647  -0.85646
 Alpha  occ. eigenvalues --   -0.84150  -0.84032  -0.83364  -0.82208  -0.80991
 Alpha  occ. eigenvalues --   -0.80990  -0.80730  -0.80729  -0.76619  -0.76618
 Alpha  occ. eigenvalues --   -0.75987  -0.75986  -0.75689  -0.73087  -0.73057
 Alpha  occ. eigenvalues --   -0.72424  -0.72258  -0.72102  -0.72099  -0.71649
 Alpha  occ. eigenvalues --   -0.71648  -0.70196  -0.70196  -0.69865  -0.69863
 Alpha  occ. eigenvalues --   -0.69382  -0.67301  -0.67301  -0.66349  -0.65809
 Alpha  occ. eigenvalues --   -0.65808  -0.64777  -0.63331  -0.62313  -0.62312
 Alpha  occ. eigenvalues --   -0.62187  -0.61910  -0.61836  -0.61836  -0.59851
 Alpha  occ. eigenvalues --   -0.59851  -0.59112  -0.59112  -0.58437  -0.58436
 Alpha  occ. eigenvalues --   -0.57199  -0.57024  -0.57022  -0.56727  -0.55719
 Alpha  occ. eigenvalues --   -0.55637  -0.55599  -0.54262  -0.54261  -0.54084
 Alpha  occ. eigenvalues --   -0.54080  -0.53886  -0.53886  -0.53183  -0.53105
 Alpha  occ. eigenvalues --   -0.52939  -0.52655  -0.52655  -0.52371  -0.52114
 Alpha  occ. eigenvalues --   -0.52114  -0.51994  -0.51664  -0.51663  -0.51549
 Alpha  occ. eigenvalues --   -0.51547  -0.50683  -0.50682  -0.50578  -0.50576
 Alpha  occ. eigenvalues --   -0.50098  -0.50041  -0.50041  -0.49514  -0.49514
 Alpha  occ. eigenvalues --   -0.49400  -0.49399  -0.49097  -0.49089  -0.49084
 Alpha  occ. eigenvalues --   -0.48477  -0.47952  -0.47867  -0.46935  -0.46934
 Alpha  occ. eigenvalues --   -0.46722  -0.45505  -0.45505  -0.45408  -0.45407
 Alpha  occ. eigenvalues --   -0.44346  -0.44346  -0.43927  -0.43926  -0.43179
 Alpha  occ. eigenvalues --   -0.43178  -0.43010  -0.42367  -0.42002  -0.41841
 Alpha  occ. eigenvalues --   -0.41243  -0.41243  -0.41188  -0.41112  -0.41111
 Alpha  occ. eigenvalues --   -0.40995  -0.40844  -0.40843  -0.40163  -0.40162
 Alpha  occ. eigenvalues --   -0.39770  -0.38866  -0.38064  -0.37156  -0.37155
 Alpha  occ. eigenvalues --   -0.36088  -0.36087  -0.33433  -0.33433  -0.33119
 Alpha  occ. eigenvalues --   -0.33118  -0.30634  -0.30607  -0.28242  -0.27975
 Alpha  occ. eigenvalues --   -0.26295  -0.26294  -0.26153  -0.26153
 Alpha virt. eigenvalues --   -0.02775  -0.02774  -0.02745  -0.02745  -0.01255
 Alpha virt. eigenvalues --   -0.00677   0.01854   0.02377   0.02940   0.03773
 Alpha virt. eigenvalues --    0.03883   0.03883   0.04149   0.04150   0.04232

 Mulliken charges:
               1
     1  C   -0.242655
     2  C    0.252094
     3  C    0.251396
     4  C   -0.282098
     5  C    0.099380
     6  C    0.149261
     7  C   -0.282003
     8  C    0.251266
     9  C    0.252266
    10  C   -0.242623
    11  C    0.250817
    12  C    0.252327
    13  C   -0.344992
    14  C   -0.345097
    15  C   -0.282352
    16  C    0.099771
    17  C    0.149467
    18  C   -0.242750
    19  C   -0.282352
    20  C    0.250817
    21  C    0.252327
    22  C   -0.242750
    23  C   -0.345251
    24  C   -0.345251
    25  C    0.252094
    26  C    0.251396
    27  C   -0.242655
    28  C    0.149261
    29  C    0.099380
    30  C   -0.282098
    31  C   -0.242623
    32  C    0.252266
    33  C    0.251266
    34  C   -0.282003
    35  C   -0.345097
    36  C   -0.344992
    37  C    0.252327
    38  C    0.250817
    39  C   -0.242750
    40  C    0.149467
    41  C    0.099771
    42  C   -0.282352
    43  C   -0.242750
    44  C    0.252327
    45  C    0.250817
    46  C   -0.282352
    47  C   -0.344992
    48  C   -0.345097
    49  C    0.252266
    50  C    0.251266
    51  C   -0.242623
    52  C    0.149261
    53  C    0.099380
    54  C   -0.282003
    55  C   -0.242655
    56  C    0.252094
    57  C    0.251396
    58  C   -0.282098
    59  C   -0.345251
    60  C   -0.345251
    61  C    0.252094
    62  C    0.251396
    63  C   -0.242655
    64  C    0.149261
    65  C    0.099380
    66  C   -0.282098
    67  C   -0.242623
    68  C    0.252266
    69  C    0.251266
    70  C   -0.282003
    71  C   -0.345097
    72  C   -0.344992
    73  H    0.185627
    74  H    0.185641
    75  H    0.141651
    76  H    0.141651
    77  H    0.185641
    78  H    0.185627
    79  H    0.141705
    80  H    0.141612
    81  H    0.185639
    82  H    0.185639
    83  H    0.141612
    84  H    0.141705
    85  H    0.185627
    86  H    0.185641
    87  H    0.141651
    88  H    0.141651
    89  H    0.185641
    90  H    0.185627
    91  H    0.141705
    92  H    0.141612
    93  H    0.185639
    94  H    0.185639
    95  H    0.141612
    96  H    0.141705
    97  H   -0.085459
    98  H   -0.085114
    99  H   -0.085114
   100  H   -0.085459
   101  H   -0.084905
   102  H   -0.084905
   103  H   -0.085459
   104  H   -0.085114
   105  H   -0.085114
   106  H   -0.085459
   107  H   -0.084905
   108  H   -0.084905
 Sum of Mulliken charges =  -0.00000

 Dipole moment (field-independent basis, Debye):
    X=              0.0000    Y=             -0.0000    Z=              0.0000  Tot=              0.0000
 Quadrupole moment (field-independent basis, Debye-Ang):
   XX=           -349.5533   YY=           -349.5481   ZZ=           -436.6975
   XY=             -0.0000   XZ=              0.0000   YZ=              0.0000

 Normal termination of Gaussian 16 at Tue Sep  6 01:02:09 2022.
