 Gaussian 16, Revision A.03,
 Gaussian 16:  ES64L-G16RevA.03 25-Dec-2016

 --------------------------------------------
 # opt wb97xd/6-311++g(d,p) geom=connectivity
 --------------------------------------------

 ---------------
 Sixmember-3.cdx
 ---------------
 Symbolic Z-matrix:
 Charge =  0 Multiplicity = 1

 SCF Done:  E(RwB97XD) =  -1843.47144546     A.U. after   13 cycles
 SCF Done:  E(RwB97XD) =  -1843.47189613     A.U. after   10 cycles
 SCF Done:  E(RwB97XD) =  -1843.47190584     A.U. after    9 cycles
 Optimization completed.
    -- Stationary point found.

                         Standard orientation:
 ---------------------------------------------------------------------
 Center     Atomic      Atomic             Coordinates (Angstroms)
 Number     Number       Type             X           Y           Z
 ---------------------------------------------------------------------
      1          6           0        0.000000    1.222882    4.989581
      2          6           0        0.000000    1.219805    3.572829
      3          6           0        0.000000    2.484443    2.842707
      4          6           0        0.000000    3.709825    3.553819
      5          6           0        0.000000    3.666138    4.998755
      6          6           0        0.000000    2.496055    5.674304
      7          6           0       -0.000000    0.000000    5.667211
      8          6           0       -0.000000   -1.222882    4.989581
      9          6           0       -0.000000   -1.219805    3.572829
     10          6           0       -0.000000    0.000000    2.912007
     11          6           0       -0.000000   -2.496055    5.674304
     12          6           0       -0.000000   -3.666138    4.998755
     13          6           0       -0.000000   -3.709825    3.553819
     14          6           0       -0.000000   -2.484443    2.842707
     15          6           0        0.000000   -4.908236    2.833730
     16          6           0        0.000000   -4.932798    1.435865
     17          6           0        0.000000   -3.704311    0.730121
     18          6           0        0.000000   -2.522022    1.455922
     19          6           0        0.000000   -6.162306    0.675563
     20          6           0        0.000000   -6.162306   -0.675563
     21          6           0        0.000000   -4.932798   -1.435865
     22          6           0        0.000000   -3.704311   -0.730121
     23          6           0        0.000000   -4.908236   -2.833730
     24          6           0       -0.000000   -3.709825   -3.553819
     25          6           0       -0.000000   -2.484443   -2.842707
     26          6           0        0.000000   -2.522022   -1.455922
     27          6           0       -0.000000   -3.666138   -4.998755
     28          6           0       -0.000000   -2.496055   -5.674304
     29          6           0       -0.000000   -1.222882   -4.989581
     30          6           0       -0.000000   -1.219805   -3.572829
     31          6           0        0.000000    0.000000   -5.667211
     32          6           0        0.000000    1.222882   -4.989581
     33          6           0        0.000000    1.219805   -3.572829
     34          6           0        0.000000    0.000000   -2.912007
     35          6           0        0.000000    2.496055   -5.674304
     36          6           0        0.000000    3.666138   -4.998755
     37          6           0        0.000000    3.709825   -3.553819
     38          6           0        0.000000    2.484443   -2.842707
     39          6           0        0.000000    4.908236   -2.833730
     40          6           0        0.000000    4.932798   -1.435865
     41          6           0        0.000000    3.704311   -0.730121
     42          6           0        0.000000    2.522022   -1.455922
     43          6           0        0.000000    6.162306   -0.675563
     44          6           0        0.000000    6.162306    0.675563
     45          6           0        0.000000    4.932798    1.435865
     46          6           0        0.000000    3.704311    0.730121
     47          6           0        0.000000    4.908236    2.833730
     48          6           0        0.000000    2.522022    1.455922
     49          1           0        0.000000   -4.606555    5.540367
     50          1           0        0.000000   -2.494839    6.759528
     51          1           0       -0.000000    0.000000    6.753566
     52          1           0        0.000000    2.494839    6.759528
     53          1           0        0.000000    4.606555    5.540367
     54          1           0        0.000000    5.848995    3.376997
     55          1           0        0.000000    7.101542    1.219222
     56          1           0        0.000000    7.101542   -1.219222
     57          1           0        0.000000    5.848995   -3.376997
     58          1           0        0.000000    4.606555   -5.540367
     59          1           0        0.000000    2.494839   -6.759528
     60          1           0        0.000000    0.000000   -6.753566
     61          1           0        0.000000   -2.494839   -6.759528
     62          1           0        0.000000   -4.606555   -5.540367
     63          1           0       -0.000000   -5.848995   -3.376997
     64          1           0       -0.000000   -7.101542   -1.219222
     65          1           0       -0.000000   -7.101542    1.219222
     66          1           0       -0.000000   -5.848995    3.376997
     67          1           0        0.000000   -1.589224    0.917022
     68          1           0       -0.000000    0.000000    1.834763
     69          1           0        0.000000    1.589224    0.917022
     70          1           0        0.000000    1.589224   -0.917022
     71          1           0        0.000000    0.000000   -1.834763
     72          1           0        0.000000   -1.589224   -0.917022
 ---------------------------------------------------------------------

 The electronic state is 1-AG.
 Alpha  occ. eigenvalues --  -10.30864 -10.30863 -10.30863 -10.30863 -10.30862
 Alpha  occ. eigenvalues --  -10.30862 -10.30840 -10.30840 -10.30840 -10.30840
 Alpha  occ. eigenvalues --  -10.30840 -10.30840 -10.30803 -10.30803 -10.30803
 Alpha  occ. eigenvalues --  -10.30802 -10.30802 -10.30801 -10.30792 -10.30791
 Alpha  occ. eigenvalues --  -10.30791 -10.30790 -10.30790 -10.30790 -10.29961
 Alpha  occ. eigenvalues --  -10.29961 -10.29960 -10.29960 -10.29960 -10.29960
 Alpha  occ. eigenvalues --  -10.29955 -10.29955 -10.29955 -10.29955 -10.29954
 Alpha  occ. eigenvalues --  -10.29954 -10.29882 -10.29882 -10.29882 -10.29882
 Alpha  occ. eigenvalues --  -10.29882 -10.29882 -10.29553 -10.29552 -10.29552
 Alpha  occ. eigenvalues --  -10.29551 -10.29551 -10.29550  -1.01229  -1.00574
 Alpha  occ. eigenvalues --   -1.00574  -0.98761  -0.98761  -0.96150  -0.96046
 Alpha  occ. eigenvalues --   -0.92926  -0.92925  -0.91779  -0.91224  -0.91224
 Alpha  occ. eigenvalues --   -0.88725  -0.88725  -0.88599  -0.88598  -0.86166
 Alpha  occ. eigenvalues --   -0.85069  -0.85061  -0.84579  -0.81633  -0.81633
 Alpha  occ. eigenvalues --   -0.81504  -0.81503  -0.75616  -0.75616  -0.75507
 Alpha  occ. eigenvalues --   -0.75120  -0.75120  -0.72309  -0.71527  -0.71525
 Alpha  occ. eigenvalues --   -0.70600  -0.70145  -0.70144  -0.69743  -0.66854
 Alpha  occ. eigenvalues --   -0.66168  -0.66168  -0.64793  -0.62841  -0.62289
 Alpha  occ. eigenvalues --   -0.62289  -0.61238  -0.61237  -0.60263  -0.60112
 Alpha  occ. eigenvalues --   -0.60112  -0.56857  -0.56536  -0.56535  -0.56214
 Alpha  occ. eigenvalues --   -0.56214  -0.55182  -0.55179  -0.53858  -0.53723
 Alpha  occ. eigenvalues --   -0.53296  -0.53296  -0.52464  -0.52125  -0.51662
 Alpha  occ. eigenvalues --   -0.51582  -0.51581  -0.51297  -0.51296  -0.50940
 Alpha  occ. eigenvalues --   -0.50868  -0.50541  -0.50540  -0.50349  -0.49283
 Alpha  occ. eigenvalues --   -0.49282  -0.48987  -0.48987  -0.48348  -0.48348
 Alpha  occ. eigenvalues --   -0.46500  -0.46500  -0.45713  -0.45475  -0.45466
 Alpha  occ. eigenvalues --   -0.45311  -0.45310  -0.43373  -0.42549  -0.42015
 Alpha  occ. eigenvalues --   -0.42013  -0.41520  -0.41520  -0.41280  -0.40716
 Alpha  occ. eigenvalues --   -0.40612  -0.40611  -0.40483  -0.40482  -0.37495
 Alpha  occ. eigenvalues --   -0.37494  -0.36426  -0.36426  -0.33771  -0.32322
 Alpha  occ. eigenvalues --   -0.31914  -0.30669  -0.27907  -0.27907  -0.27003
 Alpha  occ. eigenvalues --   -0.27003
 Alpha virt. eigenvalues --   -0.01688  -0.01688  -0.01148  -0.01147   0.01064
 Alpha virt. eigenvalues --    0.02400   0.03265   0.03735   0.03978   0.03978
 Alpha virt. eigenvalues --    0.04558   0.04558   0.05353   0.05385   0.05425

 Mulliken charges:
               1
     1  C    0.483659
     2  C   -0.093092
     3  C   -0.093349
     4  C    0.483971
     5  C   -0.438614
     6  C   -0.438646
     7  C   -0.025816
     8  C    0.483659
     9  C   -0.093092
    10  C   -0.203043
    11  C   -0.438646
    12  C   -0.438614
    13  C    0.483971
    14  C   -0.093349
    15  C   -0.025765
    16  C    0.484042
    17  C   -0.093435
    18  C   -0.202792
    19  C   -0.438951
    20  C   -0.438951
    21  C    0.484042
    22  C   -0.093435
    23  C   -0.025765
    24  C    0.483971
    25  C   -0.093349
    26  C   -0.202792
    27  C   -0.438614
    28  C   -0.438646
    29  C    0.483659
    30  C   -0.093092
    31  C   -0.025816
    32  C    0.483659
    33  C   -0.093092
    34  C   -0.203043
    35  C   -0.438646
    36  C   -0.438614
    37  C    0.483971
    38  C   -0.093349
    39  C   -0.025765
    40  C    0.484042
    41  C   -0.093435
    42  C   -0.202792
    43  C   -0.438951
    44  C   -0.438951
    45  C    0.484042
    46  C   -0.093435
    47  C   -0.025765
    48  C   -0.202792
    49  H    0.182609
    50  H    0.182622
    51  H    0.144861
    52  H    0.182622
    53  H    0.182609
    54  H    0.144919
    55  H    0.182606
    56  H    0.182606
    57  H    0.144919
    58  H    0.182609
    59  H    0.182622
    60  H    0.144861
    61  H    0.182622
    62  H    0.182609
    63  H    0.144919
    64  H    0.182606
    65  H    0.182606
    66  H    0.144919
    67  H   -0.185296
    68  H   -0.184974
    69  H   -0.185296
    70  H   -0.185296
    71  H   -0.184974
    72  H   -0.185296
 Sum of Mulliken charges =  -0.00000

 Dipole moment (field-independent basis, Debye):
    X=             -0.0000    Y=              0.0000    Z=              0.0000  Tot=              0.0000
 Quadrupole moment (field-independent basis, Debye-Ang):
   XX=           -290.9583   YY=           -231.9919   ZZ=           -231.9965
   XY=              0.0000   XZ=             -0.0000   YZ=              0.0000

 Normal termination of Gaussian 16 at Sat Sep  3 10:03:24 2022.
