 Gaussian 16, Revision A.03,
 Gaussian 16:  ES64L-G16RevA.03 25-Dec-2016

 -------------------------------------------------
 # opt freq wb97xd/6-311++g(d,p) geom=connectivity
 -------------------------------------------------

 -------------
 iindacene.cdx
 -------------
 Symbolic Z-matrix:
 Charge =  0 Multiplicity = 1

 SCF Done:  E(RwB97XD) =  -921.590338609     A.U. after   18 cycles
 SCF Done:  E(RwB97XD) =  -921.590731252     A.U. after   13 cycles
 SCF Done:  E(RwB97XD) =  -921.590768816     A.U. after   12 cycles
 SCF Done:  E(RwB97XD) =  -921.590784844     A.U. after   11 cycles
 Optimization completed.
    -- Stationary point found.
 Normal termination of Gaussian 16 at Thu Sep  1 16:41:16 2022.

 ----------------------------------------------------------------------
 #N Geom=AllCheck Guess=TCheck SCRF=Check GenChk RwB97XD/6-311++G(d,p)
 Freq
 ----------------------------------------------------------------------

 Structure from the checkpoint file:  "indacene_IRC_3.chk"
 -------------
 iindacene.cdx
 -------------
 Charge =  0 Multiplicity = 1

                         Standard orientation:
 ---------------------------------------------------------------------
 Center     Atomic      Atomic             Coordinates (Angstroms)
 Number     Number       Type             X           Y           Z
 ---------------------------------------------------------------------
      1          6           0        1.335606    0.383759    0.000001
      2          6           0        0.983697   -0.981599   -0.000001
      3          6           0       -0.335453   -1.348467   -0.000002
      4          6           0       -1.342040   -0.361095   -0.000001
      5          6           0       -1.000176    0.964799    0.000001
      6          6           0        0.358273    1.342665    0.000001
      7          6           0       -1.808097    2.180026    0.000001
      8          6           0       -0.959755    3.262568    0.000001
      9          6           0        0.418343    2.796629    0.000005
     10          6           0       -0.983924   -2.655838   -0.000004
     11          6           0       -2.345626   -2.462423   -0.000002
     12          6           0       -2.631193   -1.036080   -0.000002
     13          6           0        2.792051    0.475810    0.000002
     14          6           0        3.305347   -0.800194   -0.000001
     15          6           0        2.212845   -1.760581   -0.000003
     16          6           0       -3.826161   -0.381275   -0.000002
     17          6           0       -4.067197    1.042526   -0.000000
     18          6           0       -3.244207    2.133581    0.000001
     19          6           0        2.243272   -3.122859   -0.000006
     20          6           0        1.130735   -4.043474   -0.000007
     21          6           0       -0.225639   -3.876311   -0.000006
     22          6           0        1.582896    3.504114    0.000008
     23          6           0        2.936487    3.000992    0.000008
     24          6           0        3.469914    1.742739    0.000006
     25          1           0        4.555876    1.692302    0.000006
     26          1           0        3.678955    3.794871    0.000009
     27          1           0        1.503600    4.588325    0.000008
     28          1           0       -1.255600    4.302775    0.000000
     29          1           0       -3.743535    3.099263    0.000001
     30          1           0       -5.125933    1.288623   -0.000001
     31          1           0       -4.725455   -0.992064   -0.000002
     32          1           0       -3.098530   -3.238757   -0.000001
     33          1           0       -0.812300   -4.791568   -0.000007
     34          1           0        1.446955   -5.083432   -0.000007
     35          1           0        3.221874   -3.596287   -0.000006
     36          1           0        4.354094   -1.064120   -0.000002
 ---------------------------------------------------------------------

 SCF Done:  E(RwB97XD) =  -921.590784844     A.U. after    1 cycles

 The electronic state is 1-A.
 Alpha  occ. eigenvalues --  -10.31069 -10.31068 -10.31068 -10.31057 -10.31057
 Alpha  occ. eigenvalues --  -10.31057 -10.30916 -10.30916 -10.30916 -10.30899
 Alpha  occ. eigenvalues --  -10.30898 -10.30898 -10.30799 -10.30798 -10.30798
 Alpha  occ. eigenvalues --  -10.29806 -10.29802 -10.29801 -10.29436 -10.29436
 Alpha  occ. eigenvalues --  -10.29429 -10.28227 -10.28227 -10.28226  -1.02337
 Alpha  occ. eigenvalues --   -0.98292  -0.98291  -0.92792  -0.92792  -0.92183
 Alpha  occ. eigenvalues --   -0.87276  -0.87119  -0.85819  -0.85818  -0.79828
 Alpha  occ. eigenvalues --   -0.79828  -0.77748  -0.77748  -0.70883  -0.70658
 Alpha  occ. eigenvalues --   -0.69429  -0.69429  -0.67887  -0.63035  -0.63034
 Alpha  occ. eigenvalues --   -0.60929  -0.60928  -0.59390  -0.57308  -0.56715
 Alpha  occ. eigenvalues --   -0.56714  -0.53417  -0.52770  -0.52770  -0.52714
 Alpha  occ. eigenvalues --   -0.50626  -0.50591  -0.50590  -0.47780  -0.47779
 Alpha  occ. eigenvalues --   -0.47410  -0.46290  -0.46266  -0.46265  -0.44830
 Alpha  occ. eigenvalues --   -0.44711  -0.44711  -0.42167  -0.42167  -0.41779
 Alpha  occ. eigenvalues --   -0.40521  -0.40520  -0.35555  -0.33641  -0.33641
 Alpha  occ. eigenvalues --   -0.33422  -0.24545  -0.24545
 Alpha virt. eigenvalues --   -0.05143  -0.05142   0.03341   0.03826   0.04186
 Alpha virt. eigenvalues --    0.04186   0.05290   0.05290   0.05512   0.05513
 Alpha virt. eigenvalues --    0.05779   0.06634   0.06689   0.08409   0.08409

 Mulliken charges:
               1
     1  C   -0.044711
     2  C   -0.066498
     3  C   -0.044604
     4  C   -0.066465
     5  C   -0.044896
     6  C   -0.066486
     7  C    0.138686
     8  C   -0.293223
     9  C    0.212658
    10  C    0.138398
    11  C   -0.293067
    12  C    0.212701
    13  C    0.138438
    14  C   -0.293125
    15  C    0.212853
    16  C   -0.158161
    17  C   -0.343289
    18  C   -0.194927
    19  C   -0.158187
    20  C   -0.343050
    21  C   -0.194929
    22  C   -0.158134
    23  C   -0.343036
    24  C   -0.194946
    25  H    0.181351
    26  H    0.221342
    27  H    0.183274
    28  H    0.163383
    29  H    0.181353
    30  H    0.221341
    31  H    0.183265
    32  H    0.163380
    33  H    0.181330
    34  H    0.221327
    35  H    0.183278
    36  H    0.163380
 Sum of Mulliken charges =  -0.00000

 Dipole moment (field-independent basis, Debye):
    X=              0.0003    Y=              0.0002    Z=             -0.0000  Tot=              0.0004
 Quadrupole moment (field-independent basis, Debye-Ang):
   XX=           -115.1775   YY=           -115.1809   ZZ=           -146.2768
   XY=             -0.0012   XZ=              0.0000   YZ=              0.0000

  Exact polarizability: 431.188   0.016 431.213   0.018   0.035 123.007
 Approx polarizability: 535.788  -0.001 535.797   0.000   0.001 164.127

                      1                      2                      3
                      A                      A                      A
 Frequencies --     76.7257                93.3594                93.6348
 Red. masses --      5.2371                 4.7629                 4.7681
 Frc consts  --      0.0182                 0.0245                 0.0246
 IR Inten    --      7.3941                 0.0009                 0.0002

                      4                      5                      6
                      A                      A                      A
 Frequencies --    160.5976               212.6555               225.8593
 Red. masses --      4.0364                 4.2641                 4.5087
 Frc consts  --      0.0613                 0.1136                 0.1355
 IR Inten    --      0.6673                 0.1424                 0.0001

                      7                      8                      9
                      A                      A                      A
 Frequencies --    225.9202               320.3603               320.6425
 Red. masses --      4.5110                 6.0277                 6.0311
 Frc consts  --      0.1357                 0.3645                 0.3653
 IR Inten    --      0.0000                 7.6250                 7.6187

                     10                     11                     12
                      A                      A                      A
 Frequencies --    327.9207               327.9305               361.4110
 Red. masses --      4.2708                 4.2671                 8.0815
 Frc consts  --      0.2706                 0.2704                 0.6219
 IR Inten    --      0.0000                 0.0000                 6.6141

                     13                     14                     15
                      A                      A                      A
 Frequencies --    361.5616               385.8668               385.9702
 Red. masses --      8.0766                 4.8713                 4.8704
 Frc consts  --      0.6221                 0.4273                 0.4275
 IR Inten    --      6.5893                 0.0004                 0.0000

                     16                     17                     18
                      A                      A                      A
 Frequencies --    448.5601               470.1865               481.0072
 Red. masses --      7.7405                 7.4317                 3.6561
 Frc consts  --      0.9176                 0.9680                 0.4984
 IR Inten    --      0.0001                 0.0001                 3.7152

                     19                     20                     21
                      A                      A                      A
 Frequencies --    488.5865               489.4042               531.9245
 Red. masses --      4.9169                 4.9097                 3.5324
 Frc consts  --      0.6916                 0.6929                 0.5889
 IR Inten    --      0.4996                 0.5222                 0.0000

                     22                     23                     24
                      A                      A                      A
 Frequencies --    532.0402               533.7007               562.9027
 Red. masses --      3.5317                 7.5544                 4.5964
 Frc consts  --      0.5890                 1.2678                 0.8581
 IR Inten    --      0.0006                 0.0001                 0.4758

                     25                     26                     27
                      A                      A                      A
 Frequencies --    605.2666               631.2065               631.4446
 Red. masses --      3.6206                 5.6802                 5.6777
 Frc consts  --      0.7815                 1.3334                 1.3338
 IR Inten    --      0.0001                 2.0678                 2.0973

                     28                     29                     30
                      A                      A                      A
 Frequencies --    654.6196               678.2963               678.4432
 Red. masses --      2.6415                 2.7668                 2.7768
 Frc consts  --      0.6669                 0.7500                 0.7530
 IR Inten    --     55.7652                 0.0001                 0.0001

                     31                     32                     33
                      A                      A                      A
 Frequencies --    724.4184               730.7178               730.8789
 Red. masses --      3.0812                 3.6605                 3.6778
 Frc consts  --      0.9527                 1.1516                 1.1575
 IR Inten    --      0.6214                 0.0006                 0.0008

                     34                     35                     36
                      A                      A                      A
 Frequencies --    769.1999               787.9724               788.3947
 Red. masses --      1.6042                 1.5651                 1.5601
 Frc consts  --      0.5592                 0.5726                 0.5713
 IR Inten    --      0.5235                 0.0017                 0.0004

                     37                     38                     39
                      A                      A                      A
 Frequencies --    795.9860               796.2373               799.8592
 Red. masses --      5.5449                 5.5453                 7.5910
 Frc consts  --      2.0699                 2.0714                 2.8614
 IR Inten    --      0.5861                 0.5987                 0.0027

                     40                     41                     42
                      A                      A                      A
 Frequencies --    836.7334               837.3506               837.7326
 Red. masses --      6.3294                 1.6969                 1.6935
 Frc consts  --      2.6109                 0.7010                 0.7002
 IR Inten    --      0.0006                 0.0001                 0.0005

                     43                     44                     45
                      A                      A                      A
 Frequencies --    853.6565               879.3559               879.5354
 Red. masses --      1.7679                 6.9508                 6.9531
 Frc consts  --      0.7590                 3.1667                 3.1691
 IR Inten    --    162.9355                 9.6693                 9.5541

                     46                     47                     48
                      A                      A                      A
 Frequencies --    951.2559               953.3138               953.6183
 Red. masses --      1.4402                 1.4635                 1.4619
 Frc consts  --      0.7678                 0.7836                 0.7833
 IR Inten    --     10.4115                 0.0599                 0.0652

                     49                     50                     51
                      A                      A                      A
 Frequencies --    990.1878               990.3943              1003.9951
 Red. masses --      4.9833                 4.9792                 3.3812
 Frc consts  --      2.8787                 2.8776                 2.0081
 IR Inten    --      0.4386                 0.4695                 0.0005

                     52                     53                     54
                      A                      A                      A
 Frequencies --   1028.3354              1028.8082              1028.8752
 Red. masses --      1.3051                 1.3045                 1.3054
 Frc consts  --      0.8132                 0.8135                 0.8142
 IR Inten    --      0.1298                 0.0746                 0.2100

                     55                     56                     57
                      A                      A                      A
 Frequencies --   1037.6971              1038.0369              1083.2723
 Red. masses --      2.6845                 2.6866                 3.2532
 Frc consts  --      1.7031                 1.7056                 2.2492
 IR Inten    --      5.3473                 5.2503                 0.0006

                     58                     59                     60
                      A                      A                      A
 Frequencies --   1142.3727              1175.3913              1175.5390
 Red. masses --      2.6657                 1.6547                 1.6527
 Frc consts  --      2.0496                 1.3469                 1.3456
 IR Inten    --      0.0011                21.5424                21.6928

                     61                     62                     63
                      A                      A                      A
 Frequencies --   1210.7077              1242.4286              1242.6028
 Red. masses --      2.3238                 2.6688                 2.6882
 Frc consts  --      2.0069                 2.4272                 2.4456
 IR Inten    --      0.0028                69.8101                70.6042

                     64                     65                     66
                      A                      A                      A
 Frequencies --   1256.0782              1279.3263              1279.7622
 Red. masses --      2.1744                 1.4276                 1.4236
 Frc consts  --      2.0213                 1.3767                 1.3737
 IR Inten    --      0.0026                17.1154                16.7523

                     67                     68                     69
                      A                      A                      A
 Frequencies --   1310.3595              1354.6541              1354.8343
 Red. masses --      2.2551                 2.0277                 2.0244
 Frc consts  --      2.2814                 2.1924                 2.1894
 IR Inten    --      0.0004                30.8015                30.4360

                     70                     71                     72
                      A                      A                      A
 Frequencies --   1382.0518              1404.9877              1405.3797
 Red. masses --      2.0057                 2.2756                 2.3711
 Frc consts  --      2.2572                 2.6466                 2.7592
 IR Inten    --      0.0007                15.6476                13.2362

                     73                     74                     75
                      A                      A                      A
 Frequencies --   1405.7560              1449.1124              1458.1907
 Red. masses --      2.9291                 1.7872                 3.3163
 Frc consts  --      3.4104                 2.2112                 4.1547
 IR Inten    --      2.3971                 0.0020                 0.0163

                     76                     77                     78
                      A                      A                      A
 Frequencies --   1463.5217              1463.7037              1480.4228
 Red. masses --      2.3888                 2.3966                 3.4510
 Frc consts  --      3.0146                 3.0252                 4.4562
 IR Inten    --      4.4154                 4.4264                23.0515

                     79                     80                     81
                      A                      A                      A
 Frequencies --   1480.5459              1563.1838              1563.4291
 Red. masses --      3.4507                 4.7679                 4.7608
 Frc consts  --      4.4566                 6.8644                 6.8563
 IR Inten    --     22.9139                21.8483                21.9296

                     82                     83                     84
                      A                      A                      A
 Frequencies --   1570.6405              1581.7406              1620.9350
 Red. masses --      8.4906                 5.0189                 7.0125
 Frc consts  --     12.3408                 7.3983                10.8556
 IR Inten    --      0.0009                 0.0025                38.0161

                     85                     86                     87
                      A                      A                      A
 Frequencies --   1621.1396              1685.2524              1685.6309
 Red. masses --      7.0376                 6.5525                 6.5719
 Frc consts  --     10.8972                10.9645                11.0019
 IR Inten    --     38.3858                12.2386                12.2945

                     88                     89                     90
                      A                      A                      A
 Frequencies --   1693.2256              1736.6324              1736.9526
 Red. masses --      6.1236                11.0012                11.0156
 Frc consts  --     10.3439                19.5482                19.5809
 IR Inten    --      0.0069                64.6950                64.9779

                     91                     92                     93
                      A                      A                      A
 Frequencies --   3152.8881              3153.2815              3153.5542
 Red. masses --      1.0844                 1.0846                 1.0846
 Frc consts  --      6.3511                 6.3540                 6.3551
 IR Inten    --      0.4033                 2.9983                 2.8174

                     94                     95                     96
                      A                      A                      A
 Frequencies --   3167.5808              3167.8242              3167.9820
 Red. masses --      1.0893                 1.0893                 1.0893
 Frc consts  --      6.4393                 6.4404                 6.4412
 IR Inten    --      9.9801                13.8235                17.9638

                     97                     98                     99
                      A                      A                      A
 Frequencies --   3180.8456              3181.1159              3181.5637
 Red. masses --      1.0922                 1.0922                 1.0922
 Frc consts  --      6.5109                 6.5120                 6.5139
 IR Inten    --     60.3622                57.0933                10.6296

                    100                    101                    102
                      A                      A                      A
 Frequencies --   3233.7157              3233.9589              3234.2517
 Red. masses --      1.0952                 1.0951                 1.0952
 Frc consts  --      6.7474                 6.7483                 6.7495
 IR Inten    --      6.7632                 7.4445                 7.1803

 - Thermochemistry -
 -------------------
 Temperature   298.150 Kelvin.  Pressure   1.00000 Atm.
 Atom     1 has atomic number  6 and mass  12.00000

 Molecular mass:   300.09390 amu.
 Principal axes and moments of inertia in atomic units:
                           1         2         3
     Eigenvalues --  5586.487065586.71270**********
           X            1.00000  -0.00167  -0.00000
           Y            0.00167   1.00000  -0.00000
           Z            0.00000   0.00000   1.00000
 This molecule is an asymmetric top.
 Rotational symmetry number  1.
 Warning -- assumption of classical behavior for rotation
           may cause significant error
 Rotational temperatures (Kelvin)      0.01550     0.01550     0.00775
 Rotational constants (GHZ):           0.32305     0.32304     0.16152
 Zero-point vibrational energy     730433.1 (Joules/Mol)
                                  174.57770 (Kcal/Mol)
 Warning -- explicit consideration of  25 degrees of freedom as
           vibrations may cause significant error
 Vibrational temperatures:    110.39   134.32   134.72   231.06   305.96
          (Kelvin)            324.96   325.05   460.93   461.33   471.80
                              471.82   519.99   520.21   555.18   555.33
                              645.38   676.49   692.06   702.97   704.14
                              765.32   765.49   767.88   809.89   870.84
                              908.17   908.51   941.85   975.92   976.13
                             1042.28  1051.34  1051.57  1106.71  1133.72
                             1134.32  1145.25  1145.61  1150.82  1203.87
                             1204.76  1205.31  1228.22  1265.20  1265.46
                             1368.65  1371.61  1372.04  1424.66  1424.96
                             1444.53  1479.55  1480.23  1480.32  1493.01
                             1493.50  1558.59  1643.62  1691.13  1691.34
                             1741.94  1787.58  1787.83  1807.22  1840.67
                             1841.29  1885.31  1949.05  1949.30  1988.46
                             2021.46  2022.03  2022.57  2084.95  2098.01
                             2105.68  2105.94  2130.00  2130.18  2249.07
                             2249.43  2259.80  2275.77  2332.16  2332.46
                             2424.70  2425.25  2436.17  2498.63  2499.09
                             4536.30  4536.87  4537.26  4557.44  4557.79
                             4558.02  4576.53  4576.92  4577.56  4652.60
                             4652.95  4653.37

 Zero-point correction=                           0.278207 (Hartree/Particle)
 Thermal correction to Energy=                    0.293128
 Thermal correction to Enthalpy=                  0.294072
 Thermal correction to Gibbs Free Energy=         0.237450
 Sum of electronic and zero-point Energies=           -921.312578
 Sum of electronic and thermal Energies=              -921.297657
 Sum of electronic and thermal Enthalpies=            -921.296712
 Sum of electronic and thermal Free Energies=         -921.353335

                     E (Thermal)             CV                S
                      KCal/Mol        Cal/Mol-Kelvin    Cal/Mol-Kelvin
 Total                  183.941             66.293            119.173
 Electronic               0.000              0.000              0.000
 Translational            0.889              2.981             42.994
 Rotational               0.889              2.981             34.210
 Vibrational            182.163             60.331             41.968
 Vibration     1          0.599              1.965              3.973
 Vibration     2          0.602              1.954              3.588
 Vibration     3          0.603              1.954              3.583
 Vibration     4          0.622              1.891              2.543
 Vibration     5          0.644              1.822              2.021
 Vibration     6          0.650              1.802              1.912
 Vibration     7          0.650              1.802              1.911
 Vibration     8          0.706              1.635              1.308
 Vibration     9          0.706              1.634              1.307
 Vibration    10          0.711              1.620              1.270
 Vibration    11          0.711              1.620              1.270
 Vibration    12          0.736              1.552              1.116
 Vibration    13          0.736              1.551              1.115
 Vibration    14          0.755              1.500              1.016
 Vibration    15          0.755              1.500              1.016
 Vibration    16          0.808              1.364              0.800
 Vibration    17          0.827              1.316              0.737
 Vibration    18          0.837              1.292              0.707
 Vibration    19          0.844              1.275              0.687
 Vibration    20          0.845              1.274              0.685
 Vibration    21          0.887              1.179              0.583
 Vibration    22          0.887              1.179              0.583
 Vibration    23          0.889              1.175              0.579
 Vibration    24          0.919              1.112              0.518
 Vibration    25          0.964              1.021              0.441

 Optimization completed.
    -- Stationary point found.
 Normal termination of Gaussian 16 at Thu Sep  1 18:33:30 2022.
