 Gaussian 16, Revision A.03,
 Gaussian 16:  ES64L-G16RevA.03 25-Dec-2016

 -------------------------------------------------
 # opt freq wb97xd/6-311++g(d,p) geom=connectivity
 -------------------------------------------------

 ---------------
 sixmember-4.cdx
 ---------------
 Symbolic Z-matrix:
 Charge =  0 Multiplicity = 1

 SCF Done:  E(RwB97XD) =  -385.827532097     A.U. after   15 cycles
 SCF Done:  E(RwB97XD) =  -385.842676266     A.U. after   14 cycles
 SCF Done:  E(RwB97XD) =  -385.843188408     A.U. after   13 cycles
 SCF Done:  E(RwB97XD) =  -385.843254869     A.U. after   12 cycles
 SCF Done:  E(RwB97XD) =  -385.843258179     A.U. after   10 cycles
 Optimization completed.
    -- Stationary point found.
 Normal termination of Gaussian 16 at Tue Aug  9 19:33:39 2022.

 ----------------------------------------------------------------------
 #N Geom=AllCheck Guess=TCheck SCRF=Check GenChk RwB97XD/6-311++G(d,p)
 Freq
 ----------------------------------------------------------------------

 Structure from the checkpoint file:  "Naphthalene.chk"
 ---------------
 sixmember-4.cdx
 ---------------
 Charge =  0 Multiplicity = 1

                         Standard orientation:
 ---------------------------------------------------------------------
 Center     Atomic      Atomic             Coordinates (Angstroms)
 Number     Number       Type             X           Y           Z
 ---------------------------------------------------------------------
      1          6           0       -2.422919   -0.706674    0.000000
      2          6           0       -2.423073    0.706885    0.000000
      3          6           0       -1.241308   -1.396773    0.000000
      4          6           0        0.000000   -0.710112    0.000000
      5          6           0       -0.000215    0.710289   -0.000000
      6          6           0       -1.241466    1.396934    0.000000
      7          6           0        1.241451   -1.396785   -0.000000
      8          6           0        2.423153   -0.707199   -0.000000
      9          6           0        2.422993    0.706818   -0.000000
     10          6           0        1.241399    1.396709   -0.000000
     11          1           0        3.365840   -1.242728   -0.000000
     12          1           0        1.238230   -2.482131   -0.000000
     13          1           0       -1.238818   -2.482061    0.000000
     14          1           0       -1.238306    2.482234    0.000000
     15          1           0        3.366036    1.241911   -0.000000
     16          1           0        1.238140    2.482110   -0.000000
     17          1           0       -3.365694    1.242673    0.000000
     18          1           0       -3.365526   -1.242559    0.000000
 ---------------------------------------------------------------------

 SCF Done:  E(RwB97XD) =  -385.843258179     A.U. after    1 cycles

 The electronic state is 1-A'.
 Alpha  occ. eigenvalues --  -10.30100 -10.30053 -10.29250 -10.29248 -10.29241
 Alpha  occ. eigenvalues --  -10.29239 -10.29179 -10.29177 -10.29141 -10.29139
 Alpha  occ. eigenvalues --   -0.98443  -0.92984  -0.87980  -0.84627  -0.82409
 Alpha  occ. eigenvalues --   -0.72544  -0.71151  -0.69639  -0.61190  -0.60454
 Alpha  occ. eigenvalues --   -0.58973  -0.53971  -0.53397  -0.50746  -0.50744
 Alpha  occ. eigenvalues --   -0.49003  -0.48882  -0.45607  -0.42403  -0.42098
 Alpha  occ. eigenvalues --   -0.41593  -0.37279  -0.32320  -0.29469
 Alpha virt. eigenvalues --    0.01634   0.03963   0.04421   0.04704   0.04778
 Alpha virt. eigenvalues --    0.06265   0.06376   0.07593   0.08374   0.08747
 Alpha virt. eigenvalues --    0.11218   0.11697   0.11731   0.12479   0.13854

 Mulliken charges:
               1
     1  C   -0.328040
     2  C   -0.328342
     3  C   -0.105017
     4  C    0.113966
     5  C    0.114338
     6  C   -0.104443
     7  C   -0.104982
     8  C   -0.328363
     9  C   -0.328312
    10  C   -0.104906
    11  H    0.207031
    12  H    0.168989
    13  H    0.169073
    14  H    0.168998
    15  H    0.207032
    16  H    0.168980
    17  H    0.207022
    18  H    0.206975
 Sum of Mulliken charges =  -0.00000

 Dipole moment (field-independent basis, Debye):
    X=             -0.0002    Y=             -0.0005    Z=              0.0000  Tot=              0.0006
 Quadrupole moment (field-independent basis, Debye-Ang):
   XX=            -50.9571   YY=            -51.1465   ZZ=            -64.4368
   XY=             -0.0028   XZ=              0.0000   YZ=              0.0000

  Exact polarizability: 161.750  -0.006 117.970   0.000  -0.000  61.077
 Approx polarizability: 177.735  -0.011 143.131  -0.000  -0.000  73.082

                      1                      2                      3
                     A"                     A"                     A'
 Frequencies --    173.2549               186.9981               370.8510
 Red. masses --      4.1545                 3.3992                 3.8369
 Frc consts  --      0.0735                 0.0700                 0.3109
 IR Inten    --      2.7984                 0.0000                 1.5960

                      4                      5                      6
                     A"                     A"                     A"
 Frequencies --    398.0936               483.6394               494.1413
 Red. masses --      3.1220                 3.2353                 2.4344
 Frc consts  --      0.2915                 0.4459                 0.3502
 IR Inten    --      0.0000                 0.0003                25.6965

                      7                      8                      9
                     A'                     A'                     A'
 Frequencies --    523.4686               524.0018               638.0990
 Red. masses --      6.6360                 7.0840                 6.4659
 Frc consts  --      1.0714                 1.1460                 1.5511
 IR Inten    --      0.0000                 0.0000                 3.7365

                     10                     11                     12
                     A"                     A"                     A'
 Frequencies --    640.5234               736.9630               785.9312
 Red. masses --      3.2968                 1.1471                 4.5403
 Frc consts  --      0.7969                 0.3671                 1.6524
 IR Inten    --      0.0000                 0.0000                 0.0000

                     13                     14                     15
                     A"                     A"                     A'
 Frequencies --    795.3163               813.0266               814.1261
 Red. masses --      2.9382                 1.3786                 5.4085
 Frc consts  --      1.0950                 0.5369                 2.1121
 IR Inten    --      0.0007               135.7386                 0.2648

                     16                     17                     18
                     A"                     A"                     A'
 Frequencies --    859.7200               908.0410               956.5405
 Red. masses --      1.2667                 1.7713                 5.0834
 Frc consts  --      0.5516                 0.8605                 2.7404
 IR Inten    --      0.0004                 0.0001                 0.0000

                     19                     20                     21
                     A"                     A"                     A"
 Frequencies --    982.2142              1001.2585              1013.5148
 Red. masses --      1.3156                 1.3946                 1.3086
 Frc consts  --      0.7478                 0.8237                 0.7920
 IR Inten    --      0.0000                 4.0807                 0.0000

                     22                     23                     24
                     A"                     A'                     A'
 Frequencies --   1019.2067              1044.1584              1059.2382
 Red. masses --      1.3130                 2.6403                 2.0788
 Frc consts  --      0.8036                 1.6960                 1.3742
 IR Inten    --      0.0000                 9.2707                 0.0033

                     25                     26                     27
                     A'                     A'                     A'
 Frequencies --   1162.0194              1165.8057              1182.8288
 Red. masses --      1.6823                 1.3855                 1.2266
 Frc consts  --      1.3384                 1.1094                 1.0111
 IR Inten    --      6.6061                 1.8059                 0.0000

                     28                     29                     30
                     A'                     A'                     A'
 Frequencies --   1196.5195              1238.1617              1276.4290
 Red. masses --      1.0639                 1.7597                 1.5769
 Frc consts  --      0.8974                 1.5894                 1.5137
 IR Inten    --      0.0000                 0.8256                 0.0000

                     31                     32                     33
                     A'                     A'                     A'
 Frequencies --   1297.8342              1401.8817              1423.7644
 Red. masses --      1.7666                 3.2280                 1.6310
 Frc consts  --      1.7532                 3.7377                 1.9480
 IR Inten    --      6.9607                 1.1609                 5.3080

                     34                     35                     36
                     A'                     A'                     A'
 Frequencies --   1432.3233              1501.4786              1504.5920
 Red. masses --      8.0583                 2.0002                 2.5405
 Frc consts  --      9.7404                 2.6568                 3.3885
 IR Inten    --      0.0000                 0.0001                 0.0001

                     37                     38                     39
                     A'                     A'                     A'
 Frequencies --   1569.1078              1653.1561              1670.6596
 Red. masses --      3.5242                 7.1048                 5.2148
 Frc consts  --      5.1123                11.4401                 8.5756
 IR Inten    --      8.5719                 0.0001                 2.6602

                     40                     41                     42
                     A'                     A'                     A'
 Frequencies --   1713.1623              3179.2608              3180.1805
 Red. masses --      6.4641                 1.0861                 1.0860
 Frc consts  --     11.1777                 6.4683                 6.4714
 IR Inten    --      0.0000                 0.3236                 5.7218

                     43                     44                     45
                     A'                     A'                     A'
 Frequencies --   3183.2900              3185.6746              3198.4256
 Red. masses --      1.0894                 1.0888                 1.0948
 Frc consts  --      6.5038                 6.5102                 6.5989
 IR Inten    --      0.6859                 0.0241                 0.0198

                     46                     47                     48
                     A'                     A'                     A'
 Frequencies --   3199.1054              3211.5105              3212.3777
 Red. masses --      1.0948                 1.0988                 1.0984
 Frc consts  --      6.6013                 6.6771                 6.6782
 IR Inten    --     49.5409                36.5990                 0.7203

 - Thermochemistry -
 -------------------
 Temperature   298.150 Kelvin.  Pressure   1.00000 Atm.
 Atom     1 has atomic number  6 and mass  12.00000

 Molecular mass:   128.06260 amu.
 Principal axes and moments of inertia in atomic units:
                           1         2         3
     Eigenvalues --   574.231821455.692762029.92458
           X            1.00000   0.00013   0.00000
           Y           -0.00013   1.00000   0.00000
           Z            0.00000  -0.00000   1.00000
 This molecule is an asymmetric top.
 Rotational symmetry number  1.
 Warning -- assumption of classical behavior for rotation
           may cause significant error
 Rotational temperatures (Kelvin)      0.15083     0.05950     0.04267
 Rotational constants (GHZ):           3.14288     1.23978     0.88907
 Zero-point vibrational energy     389754.6 (Joules/Mol)
                                   93.15358 (Kcal/Mol)
 Warning -- explicit consideration of   8 degrees of freedom as
           vibrations may cause significant error
 Vibrational temperatures:    249.28   269.05   533.57   572.77   695.85
          (Kelvin)            710.96   753.15   753.92   918.08   921.57
                             1060.33  1130.78  1144.28  1169.76  1171.35
                             1236.95  1306.47  1376.25  1413.19  1440.59
                             1458.22  1466.41  1502.31  1524.01  1671.89
                             1677.33  1701.83  1721.52  1781.44  1836.50
                             1867.29  2017.00  2048.48  2060.79  2160.29
                             2164.77  2257.60  2378.52  2403.71  2464.86
                             4574.25  4575.57  4580.04  4583.48  4601.82
                             4602.80  4620.65  4621.89

 Zero-point correction=                           0.148450 (Hartree/Particle)
 Thermal correction to Energy=                    0.155203
 Thermal correction to Enthalpy=                  0.156147
 Thermal correction to Gibbs Free Energy=         0.117272
 Sum of electronic and zero-point Energies=           -385.694809
 Sum of electronic and thermal Energies=              -385.688055
 Sum of electronic and thermal Enthalpies=            -385.687111
 Sum of electronic and thermal Free Energies=         -385.725986

                     E (Thermal)             CV                S
                      KCal/Mol        Cal/Mol-Kelvin    Cal/Mol-Kelvin
 Total                   97.391             28.506             81.820
 Electronic               0.000              0.000              0.000
 Translational            0.889              2.981             40.455
 Rotational               0.889              2.981             28.919
 Vibrational             95.614             22.544             12.446
 Vibration     1          0.627              1.875              2.400
 Vibration     2          0.632              1.858              2.257
 Vibration     3          0.743              1.532              1.076
 Vibration     4          0.764              1.474              0.970
 Vibration     5          0.840              1.286              0.700
 Vibration     6          0.850              1.263              0.673
 Vibration     7          0.878              1.198              0.602
 Vibration     8          0.879              1.197              0.601

 Optimization completed.
    -- Stationary point found.
 Normal termination of Gaussian 16 at Tue Aug  9 19:35:59 2022.
